TITLE = "M6 WING - SURFACE PRESSURE DISTRIBUTIONS"
VARIABLES = "Section", "Tap", "X/L", "Z/L", "CP"
ZONE T=",Run= 308, Mach= 0.8395, Alpha=  3.06, Re= 11.72x10**6, Section 1", I=  34, F=POINT
  0.10000000E+01  0.12000000E+02  0.95030000E+00 -0.72600000E-02  0.10141000E+00
  0.10000000E+01  0.11000000E+02  0.81597000E+00 -0.21930000E-01 -0.78519000E-01
  0.10000000E+01  0.10000000E+02  0.66593000E+00 -0.35870000E-01 -0.17052000E+00
  0.10000000E+01  0.90000000E+01  0.56588000E+00 -0.43010000E-01 -0.22915000E+00
  0.10000000E+01  0.80000000E+01  0.46599000E+00 -0.47730000E-01 -0.26343000E+00
  0.10000000E+01  0.70000000E+01  0.36580000E+00 -0.48890000E-01 -0.21535000E+00
  0.10000000E+01  0.60000000E+01  0.26579000E+00 -0.47020000E-01 -0.16435000E+00
  0.10000000E+01  0.50000000E+01  0.16594000E+00 -0.41940000E-01 -0.92250000E-01
  0.10000000E+01  0.40000000E+01  0.49930000E-01 -0.29710000E-01 -0.46360000E-01
  0.10000000E+01  0.30000000E+01  0.20020000E-01 -0.22680000E-01 -0.34333000E-01
  0.10000000E+01  0.20000000E+01  0.59300000E-02 -0.13330000E-01  0.54883000E+00
  0.10000000E+01  0.10000000E+01  0.34000000E-03  0.29200000E-02  0.80147000E+00
  0.10000000E+01  0.34000000E+02  0.21600000E-02  0.80200000E-02  0.44357000E+00
  0.10000000E+01  0.33000000E+02  0.86600000E-02  0.15920000E-01 -0.16763000E+00
  0.10000000E+01  0.32000000E+02  0.20370000E-01  0.22850000E-01 -0.70693000E+00
  0.10000000E+01  0.31000000E+02  0.35250000E-01  0.27010000E-01 -0.10692000E+01
  0.10000000E+01  0.30000000E+02  0.60360000E-01  0.31300000E-01 -0.62898000E+00
  0.10000000E+01  0.29000000E+02  0.99590000E-01  0.36170000E-01 -0.46500000E+00
  0.10000000E+01  0.28000000E+02  0.15037000E+00  0.40800000E-01 -0.44188000E+00
  0.10000000E+01  0.27000000E+02  0.20044000E+00  0.44130000E-01 -0.45535000E+00
  0.10000000E+01  0.26000000E+02  0.25039000E+00  0.46470000E-01 -0.45911000E+00
  0.10000000E+01  0.25000000E+02  0.30050000E+00  0.48000000E-01 -0.46191000E+00
  0.10000000E+01  0.24000000E+02  0.35050000E+00  0.48790000E-01 -0.48050000E+00
  0.10000000E+01  0.23000000E+02  0.40047000E+00  0.48860000E-01 -0.50471000E+00
  0.10000000E+01  0.22000000E+02  0.45030000E+00  0.48120000E-01 -0.54665000E+00
  0.10000000E+01  0.21000000E+02  0.50039000E+00  0.46480000E-01 -0.57595000E+00
  0.10000000E+01  0.20000000E+02  0.55025000E+00  0.43940000E-01 -0.58026000E+00
  0.10000000E+01  0.19000000E+02  0.60029000E+00  0.40750000E-01 -0.39750000E+00
  0.10000000E+01  0.18000000E+02  0.65032000E+00  0.37110000E-01 -0.30655000E+00
  0.10000000E+01  0.17000000E+02  0.71026000E+00  0.32190000E-01 -0.23841000E+00
  0.10000000E+01  0.16000000E+02  0.78026000E+00  0.25610000E-01 -0.15988000E+00
  0.10000000E+01  0.15000000E+02  0.85021000E+00  0.18140000E-01 -0.58194000E-01
  0.10000000E+01  0.14000000E+02  0.92027000E+00  0.10210000E-01  0.59474000E-01
  0.10000000E+01  0.13000000E+02  0.98518000E+00  0.26500000E-02  0.17553000E+00
ZONE T=",Run= 308, Mach= 0.8395, Alpha=  3.06, Re= 11.72x10**6, Section 2", I=  34, F=POINT
  0.20000000E+01  0.12000000E+02  0.94937000E+00 -0.73500000E-02  0.14299000E+00
  0.20000000E+01  0.11000000E+02  0.81705000E+00 -0.21820000E-01 -0.35908000E-01
  0.20000000E+01  0.10000000E+02  0.66698000E+00 -0.35790000E-01 -0.15139000E+00
  0.20000000E+01  0.90000000E+01  0.56705000E+00 -0.42940000E-01 -0.22789000E+00
  0.20000000E+01  0.80000000E+01  0.46706000E+00 -0.47690000E-01 -0.26861000E+00
  0.20000000E+01  0.70000000E+01  0.36705000E+00 -0.48890000E-01 -0.23285000E+00
  0.20000000E+01  0.60000000E+01  0.26705000E+00 -0.47060000E-01 -0.18059000E+00
  0.20000000E+01  0.50000000E+01  0.16699000E+00 -0.42020000E-01 -0.13023000E+00
  0.20000000E+01  0.40000000E+01  0.49090000E-01 -0.29580000E-01 -0.44656000E-01
  0.20000000E+01  0.30000000E+01  0.19220000E-01 -0.22420000E-01 -0.68050000E-02
  0.20000000E+01  0.20000000E+01  0.52000000E-02 -0.12610000E-01  0.56459000E+00
  0.20000000E+01  0.10000000E+01  0.31000000E-03  0.27700000E-02  0.78053000E+00
  0.20000000E+01  0.34000000E+02  0.10800000E-02  0.55300000E-02  0.38781000E+00
  0.20000000E+01  0.33000000E+02  0.78900000E-02  0.15310000E-01 -0.25603000E+00
  0.20000000E+01  0.32000000E+02  0.19060000E-01  0.22320000E-01 -0.84167000E+00
  0.20000000E+01  0.31000000E+02  0.34020000E-01  0.26740000E-01 -0.11275000E+01
  0.20000000E+01  0.30000000E+02  0.59110000E-01  0.31130000E-01 -0.10922000E+01
  0.20000000E+01  0.29000000E+02  0.99130000E-01  0.36130000E-01 -0.88885000E+00
  0.20000000E+01  0.28000000E+02  0.14927000E+00  0.40710000E-01 -0.48757000E+00
  0.20000000E+01  0.27000000E+02  0.19909000E+00  0.44050000E-01 -0.53838000E+00
  0.20000000E+01  0.26000000E+02  0.25080000E+00  0.46490000E-01 -0.56135000E+00
  0.20000000E+01  0.25000000E+02  0.29925000E+00  0.47980000E-01 -0.55871000E+00
  0.20000000E+01  0.24000000E+02  0.34927000E+00  0.48780000E-01 -0.57990000E+00
  0.20000000E+01  0.23000000E+02  0.39931000E+00  0.48860000E-01 -0.61441000E+00
  0.20000000E+01  0.22000000E+02  0.44897000E+00  0.48150000E-01 -0.64705000E+00
  0.20000000E+01  0.21000000E+02  0.49927000E+00  0.46520000E-01 -0.70107000E+00
  0.20000000E+01  0.20000000E+02  0.54927000E+00  0.43980000E-01 -0.37418000E+00
  0.20000000E+01  0.19000000E+02  0.59931000E+00  0.40830000E-01 -0.26269000E+00
  0.20000000E+01  0.18000000E+02  0.64917000E+00  0.37190000E-01 -0.21300000E+00
  0.20000000E+01  0.17000000E+02  0.70897000E+00  0.32290000E-01 -0.15087000E+00
  0.20000000E+01  0.16000000E+02  0.77912000E+00  0.25720000E-01 -0.80609000E-01
  0.20000000E+01  0.15000000E+02  0.84903000E+00  0.18260000E-01  0.98211000E-02
  0.20000000E+01  0.14000000E+02  0.91929000E+00  0.10320000E-01  0.10893000E+00
  0.20000000E+01  0.13000000E+02  0.98387000E+00  0.28300000E-02  0.21145000E+00
ZONE T=",Run= 308, Mach= 0.8395, Alpha=  3.06, Re= 11.72x10**6, Section 3", I=  34, F=POINT
  0.30000000E+01  0.12000000E+02  0.94999000E+00 -0.73700000E-02  0.15727000E+00
  0.30000000E+01  0.11000000E+02  0.81986000E+00 -0.21520000E-01 -0.15874000E-01
  0.30000000E+01  0.10000000E+02  0.67008000E+00 -0.35530000E-01 -0.14277000E+00
  0.30000000E+01  0.90000000E+01  0.57033000E+00 -0.42720000E-01 -0.21310000E+00
  0.30000000E+01  0.80000000E+01  0.47037000E+00 -0.47600000E-01 -0.27948000E+00
  0.30000000E+01  0.70000000E+01  0.37009000E+00 -0.48900000E-01 -0.26993000E+00
  0.30000000E+01  0.60000000E+01  0.27010000E+00 -0.47160000E-01 -0.19558000E+00
  0.30000000E+01  0.50000000E+01  0.17010000E+00 -0.42240000E-01 -0.12139000E+00
  0.30000000E+01  0.40000000E+01  0.50160000E-01 -0.29750000E-01 -0.94742000E-02
  0.30000000E+01  0.30000000E+01  0.20100000E-01 -0.22750000E-01  0.26061000E-01
  0.30000000E+01  0.20000000E+01  0.59100000E-02 -0.13260000E-01  0.58973000E+00
  0.30000000E+01  0.10000000E+01  0.42000000E-03  0.31700000E-02  0.75249000E+00
  0.30000000E+01  0.34000000E+02  0.22200000E-02  0.80600000E-02  0.32549000E+00
  0.30000000E+01  0.33000000E+02  0.91400000E-02  0.16400000E-01 -0.32427000E+00
  0.30000000E+01  0.32000000E+02  0.20360000E-01  0.22730000E-01 -0.91808000E+00
  0.30000000E+01  0.31000000E+02  0.35080000E-01  0.26980000E-01 -0.11814000E+01
  0.30000000E+01  0.30000000E+02  0.60220000E-01  0.31280000E-01 -0.11398000E+01
  0.30000000E+01  0.29000000E+02  0.10029000E+00  0.36260000E-01 -0.10315000E+01
  0.30000000E+01  0.28000000E+02  0.15032000E+00  0.40780000E-01 -0.94104000E+00
  0.30000000E+01  0.27000000E+02  0.20029000E+00  0.44110000E-01 -0.54395000E+00
  0.30000000E+01  0.26000000E+02  0.25024000E+00  0.46470000E-01 -0.59386000E+00
  0.30000000E+01  0.25000000E+02  0.30008000E+00  0.48000000E-01 -0.63226000E+00
  0.30000000E+01  0.24000000E+02  0.35024000E+00  0.48790000E-01 -0.66355000E+00
  0.30000000E+01  0.23000000E+02  0.40037000E+00  0.48860000E-01 -0.69207000E+00
  0.30000000E+01  0.22000000E+02  0.45010000E+00  0.48130000E-01 -0.72474000E+00
  0.30000000E+01  0.21000000E+02  0.50024000E+00  0.46490000E-01 -0.30147000E+00
  0.30000000E+01  0.20000000E+02  0.55042000E+00  0.43920000E-01 -0.23626000E+00
  0.30000000E+01  0.19000000E+02  0.60071000E+00  0.40730000E-01 -0.20468000E+00
  0.30000000E+01  0.18000000E+02  0.65026000E+00  0.37110000E-01 -0.16384000E+00
  0.30000000E+01  0.17000000E+02  0.71034000E+00  0.32180000E-01 -0.12116000E+00
  0.30000000E+01  0.16000000E+02  0.78008000E+00  0.25630000E-01 -0.52245000E-01
  0.30000000E+01  0.15000000E+02  0.85001000E+00  0.18150000E-01  0.31914000E-01
  0.30000000E+01  0.14000000E+02  0.92012000E+00  0.10230000E-01  0.12305000E+00
  0.30000000E+01  0.13000000E+02  0.98611000E+00  0.25100000E-02  0.22676000E+00
ZONE T=",Run= 308, Mach= 0.8395, Alpha=  3.06, Re= 11.72x10**6, Section 4", I=  34, F=POINT
  0.40000000E+01  0.12000000E+02  0.94987000E+00 -0.73100000E-02  0.16206000E+00
  0.40000000E+01  0.11000000E+02  0.82223000E+00 -0.21250000E-01 -0.53582000E-02
  0.40000000E+01  0.10000000E+02  0.67216000E+00 -0.35370000E-01 -0.13084000E+00
  0.40000000E+01  0.90000000E+01  0.57230000E+00 -0.42610000E-01 -0.20519000E+00
  0.40000000E+01  0.80000000E+01  0.47220000E+00 -0.47530000E-01 -0.28539000E+00
  0.40000000E+01  0.70000000E+01  0.37235000E+00 -0.48910000E-01 -0.28314000E+00
  0.40000000E+01  0.60000000E+01  0.27230000E+00 -0.47230000E-01 -0.23005000E+00
  0.40000000E+01  0.50000000E+01  0.17242000E+00 -0.42380000E-01 -0.14306000E+00
  0.40000000E+01  0.40000000E+01  0.50170000E-01 -0.29740000E-01 -0.27097000E-01
  0.40000000E+01  0.30000000E+01  0.19990000E-01 -0.22680000E-01  0.24903000E-01
  0.40000000E+01  0.20000000E+01  0.61100000E-02 -0.13550000E-01  0.58044000E+00
  0.40000000E+01  0.10000000E+01  0.00000000E+00  0.00000000E+00  0.75242000E+00
  0.40000000E+01  0.34000000E+02  0.21000000E-02  0.78700000E-02  0.30352000E+00
  0.40000000E+01  0.33000000E+02  0.89300000E-02  0.16190000E-01 -0.32376000E+00
  0.40000000E+01  0.32000000E+02  0.20120000E-01  0.22760000E-01 -0.97606000E+00
  0.40000000E+01  0.31000000E+02  0.35300000E-01  0.27010000E-01 -0.12058000E+01
  0.40000000E+01  0.30000000E+02  0.60110000E-01  0.31270000E-01 -0.11614000E+01
  0.40000000E+01  0.29000000E+02  0.10019000E+00  0.36230000E-01 -0.10580000E+01
  0.40000000E+01  0.28000000E+02  0.15024000E+00  0.40780000E-01 -0.99635000E+00
  0.40000000E+01  0.27000000E+02  0.20016000E+00  0.44100000E-01 -0.95448000E+00
  0.40000000E+01  0.26000000E+02  0.25021000E+00  0.46470000E-01 -0.61798000E+00
  0.40000000E+01  0.25000000E+02  0.30021000E+00  0.47990000E-01 -0.62830000E+00
  0.40000000E+01  0.24000000E+02  0.35015000E+00  0.48790000E-01 -0.67705000E+00
  0.40000000E+01  0.23000000E+02  0.39977000E+00  0.48850000E-01 -0.30331000E+00
  0.40000000E+01  0.22000000E+02  0.45009000E+00  0.48130000E-01 -0.24510000E+00
  0.40000000E+01  0.21000000E+02  0.50020000E+00  0.46480000E-01 -0.24407000E+00
  0.40000000E+01  0.20000000E+02  0.55033000E+00  0.43930000E-01 -0.22227000E+00
  0.40000000E+01  0.19000000E+02  0.60018000E+00  0.40780000E-01 -0.18133000E+00
  0.40000000E+01  0.18000000E+02  0.65015000E+00  0.37110000E-01 -0.13901000E+00
  0.40000000E+01  0.17000000E+02  0.70977000E+00  0.32220000E-01 -0.96623000E-01
  0.40000000E+01  0.16000000E+02  0.78012000E+00  0.25620000E-01 -0.31278000E-01
  0.40000000E+01  0.15000000E+02  0.85010000E+00  0.18150000E-01  0.42526000E-01
  0.40000000E+01  0.14000000E+02  0.92005000E+00  0.10230000E-01  0.13193000E+00
  0.40000000E+01  0.13000000E+02  0.98498000E+00  0.26700000E-02  0.22458000E+00
ZONE T=",Run= 308, Mach= 0.8395, Alpha=  3.06, Re= 11.72x10**6, Section 5", I=  45, F=POINT
  0.50000000E+01  0.15000000E+02  0.94977000E+00 -0.73100000E-02  0.14990000E+00
  0.50000000E+01  0.14000000E+02  0.84954000E+00 -0.18220000E-01  0.30016000E-01
  0.50000000E+01  0.13000000E+02  0.75003000E+00 -0.28510000E-01 -0.61507000E-01
  0.50000000E+01  0.12000000E+02  0.64988000E+00 -0.37130000E-01 -0.12962000E+00
  0.50000000E+01  0.11000000E+02  0.54983000E+00 -0.43970000E-01 -0.26967000E+00
  0.50000000E+01  0.10000000E+02  0.44990000E+00 -0.48140000E-01 -0.26829000E+00
  0.50000000E+01  0.90000000E+01  0.35016000E+00 -0.48800000E-01 -0.28752000E+00
  0.50000000E+01  0.80000000E+01  0.25012000E+00 -0.46460000E-01 -0.27739000E+00
  0.50000000E+01  0.70000000E+01  0.15054000E+00 -0.40810000E-01 -0.18159000E+00
  0.50000000E+01  0.60000000E+01  0.10029000E+00 -0.36250000E-01 -0.12119000E+00
  0.50000000E+01  0.50000000E+01  0.65500000E-01 -0.32030000E-01 -0.78389000E-01
  0.50000000E+01  0.40000000E+01  0.40300000E-01 -0.27880000E-01 -0.78712000E-01
  0.50000000E+01  0.30000000E+01  0.20300000E-01 -0.22820000E-01 -0.18414000E-01
  0.50000000E+01  0.20000000E+01  0.58700000E-02 -0.13140000E-01  0.56169000E+00
  0.50000000E+01  0.10000000E+01  0.57000000E-03  0.37900000E-02  0.72573000E+00
  0.50000000E+01  0.45000000E+02  0.18400000E-02  0.72700000E-02 -0.18249000E+00
  0.50000000E+01  0.44000000E+02  0.62600000E-02  0.13610000E-01 -0.18104000E+00
  0.50000000E+01  0.43000000E+02  0.12280000E-01  0.18730000E-01 -0.57553000E+00
  0.50000000E+01  0.42000000E+02  0.20060000E-01  0.22720000E-01 -0.98545000E+00
  0.50000000E+01  0.41000000E+02  0.29880000E-01  0.25810000E-01 -0.11874000E+01
  0.50000000E+01  0.40000000E+02  0.49660000E-01  0.29660000E-01 -0.11940000E+01
  0.50000000E+01  0.39000000E+02  0.74480000E-01  0.33220000E-01 -0.11398000E+01
  0.50000000E+01  0.38000000E+02  0.99940000E-01  0.36210000E-01 -0.10927000E+01
  0.50000000E+01  0.37000000E+02  0.13986000E+00  0.39950000E-01 -0.10484000E+01
  0.50000000E+01  0.36000000E+02  0.17979000E+00  0.42860000E-01 -0.10023000E+01
  0.50000000E+01  0.35000000E+02  0.22001000E+00  0.45150000E-01 -0.99854000E+00
  0.50000000E+01  0.34000000E+02  0.25964000E+00  0.46810000E-01 -0.98085000E+00
  0.50000000E+01  0.33000000E+02  0.29988000E+00  0.48000000E-01 -0.34067000E+00
  0.50000000E+01  0.32000000E+02  0.33985000E+00  0.48690000E-01 -0.19500000E+00
  0.50000000E+01  0.31000000E+02  0.37986000E+00  0.48920000E-01 -0.17979000E+00
  0.50000000E+01  0.30000000E+02  0.41959000E+00  0.48670000E-01 -0.20789000E+00
  0.50000000E+01  0.29000000E+02  0.45975000E+00  0.47890000E-01 -0.23780000E+00
  0.50000000E+01  0.28000000E+02  0.49960000E+00  0.46500000E-01 -0.22040000E+00
  0.50000000E+01  0.27000000E+02  0.53959000E+00  0.44520000E-01 -0.19966000E+00
  0.50000000E+01  0.26000000E+02  0.57961000E+00  0.42140000E-01 -0.16242000E+00
  0.50000000E+01  0.25000000E+02  0.61987000E+00  0.39380000E-01 -0.13846000E+00
  0.50000000E+01  0.24000000E+02  0.65968000E+00  0.36370000E-01 -0.10669000E+00
  0.50000000E+01  0.23000000E+02  0.69970000E+00  0.33080000E-01 -0.84597000E-01
  0.50000000E+01  0.22000000E+02  0.73940000E+00  0.29490000E-01 -0.56618000E-01
  0.50000000E+01  0.21000000E+02  0.77960000E+00  0.25670000E-01 -0.21115000E-01
  0.50000000E+01  0.20000000E+02  0.81937000E+00  0.21570000E-01  0.20594000E-01
  0.50000000E+01  0.19000000E+02  0.85955000E+00  0.17090000E-01  0.58670000E-01
  0.50000000E+01  0.18000000E+02  0.89940000E+00  0.12460000E-01  0.99093000E-01
  0.50000000E+01  0.17000000E+02  0.94727000E+00  0.75500000E-02  0.15650000E+00
  0.50000000E+01  0.16000000E+02  0.98506000E+00  0.26600000E-02  0.21142000E+00
ZONE T=",Run= 308, Mach= 0.8395, Alpha=  3.06, Re= 11.72x10**6, Section 6", I=  45, F=POINT
  0.60000000E+01  0.15000000E+02  0.94953000E+00 -0.73400000E-02  0.12649000E+00
  0.60000000E+01  0.14000000E+02  0.84934000E+00 -0.18230000E-01  0.20755000E-01
  0.60000000E+01  0.13000000E+02  0.74963000E+00 -0.28540000E-01 -0.55879000E-01
  0.60000000E+01  0.12000000E+02  0.64980000E+00 -0.37140000E-01 -0.12061000E+00
  0.60000000E+01  0.11000000E+02  0.54955000E+00 -0.43960000E-01 -0.17342000E+00
  0.60000000E+01  0.10000000E+02  0.44998000E+00 -0.48140000E-01 -0.23970000E+00
  0.60000000E+01  0.90000000E+01  0.34990000E+00 -0.48800000E-01 -0.25446000E+00
  0.60000000E+01  0.80000000E+01  0.24997000E+00 -0.46450000E-01 -0.30064000E+00
  0.60000000E+01  0.70000000E+01  0.15016000E+00 -0.40780000E-01 -0.29253000E+00
  0.60000000E+01  0.60000000E+01  0.10019000E+00 -0.36240000E-01 -0.24053000E+00
  0.60000000E+01  0.50000000E+01  0.65210000E-01 -0.31980000E-01 -0.17040000E+00
  0.60000000E+01  0.40000000E+01  0.39990000E-01 -0.28030000E-01 -0.15776000E+00
  0.60000000E+01  0.30000000E+01  0.19850000E-01 -0.22680000E-01 -0.74273000E-01
  0.60000000E+01  0.20000000E+01  0.56700000E-02 -0.13050000E-01  0.50953000E+00
  0.60000000E+01  0.10000000E+01  0.68000000E-03  0.44900000E-02  0.69042000E+00
  0.60000000E+01  0.45000000E+02  0.19000000E-02  0.74900000E-02  0.22943000E+00
  0.60000000E+01  0.44000000E+02  0.62300000E-02  0.13650000E-01 -0.15213000E+00
  0.60000000E+01  0.43000000E+02  0.12090000E-01  0.18510000E-01 -0.59801000E+00
  0.60000000E+01  0.42000000E+02  0.19830000E-01  0.22680000E-01 -0.98262000E+00
  0.60000000E+01  0.41000000E+02  0.29910000E-01  0.25840000E-01 -0.11962000E+01
  0.60000000E+01  0.40000000E+02  0.49720000E-01  0.29670000E-01 -0.12271000E+01
  0.60000000E+01  0.39000000E+02  0.74880000E-01  0.33290000E-01 -0.11771000E+01
  0.60000000E+01  0.38000000E+02  0.99910000E-01  0.36200000E-01 -0.11335000E+01
  0.60000000E+01  0.37000000E+02  0.13983000E+00  0.39940000E-01 -0.11267000E+01
  0.60000000E+01  0.36000000E+02  0.17999000E+00  0.42720000E-01 -0.11360000E+01
  0.60000000E+01  0.35000000E+02  0.22010000E+00  0.45140000E-01 -0.55884000E+00
  0.60000000E+01  0.34000000E+02  0.25996000E+00  0.46810000E-01 -0.28202000E+00
  0.60000000E+01  0.33000000E+02  0.29994000E+00  0.47990000E-01 -0.15940000E+00
  0.60000000E+01  0.32000000E+02  0.34008000E+00  0.48690000E-01 -0.17917000E+00
  0.60000000E+01  0.31000000E+02  0.37994000E+00  0.48910000E-01 -0.21809000E+00
  0.60000000E+01  0.30000000E+02  0.41988000E+00  0.48670000E-01 -0.23780000E+00
  0.60000000E+01  0.29000000E+02  0.45976000E+00  0.47900000E-01 -0.24156000E+00
  0.60000000E+01  0.28000000E+02  0.49994000E+00  0.46490000E-01 -0.21622000E+00
  0.60000000E+01  0.27000000E+02  0.53988000E+00  0.44500000E-01 -0.19654000E+00
  0.60000000E+01  0.26000000E+02  0.57991000E+00  0.42100000E-01 -0.15194000E+00
  0.60000000E+01  0.25000000E+02  0.61970000E+00  0.39390000E-01 -0.12553000E+00
  0.60000000E+01  0.24000000E+02  0.65979000E+00  0.36350000E-01 -0.10396000E+00
  0.60000000E+01  0.23000000E+02  0.69976000E+00  0.33080000E-01 -0.73727000E-01
  0.60000000E+01  0.22000000E+02  0.73970000E+00  0.29460000E-01 -0.55590000E-01
  0.60000000E+01  0.21000000E+02  0.77962000E+00  0.25670000E-01 -0.27226000E-01
  0.60000000E+01  0.20000000E+02  0.81965000E+00  0.21540000E-01  0.94997000E-02
  0.60000000E+01  0.19000000E+02  0.85980000E+00  0.17070000E-01  0.40082000E-01
  0.60000000E+01  0.18000000E+02  0.89977000E+00  0.12410000E-01  0.71662000E-01
  0.60000000E+01  0.17000000E+02  0.94861000E+00  0.74200000E-02  0.12186000E+00
  0.60000000E+01  0.16000000E+02  0.98462000E+00  0.27200000E-02  0.17811000E+00
ZONE T=",Run= 308, Mach= 0.8395, Alpha=  3.06, Re= 11.72x10**6, Section 7", I=  45, F=POINT
  0.70000000E+01  0.15000000E+02  0.94946000E+00 -0.73500000E-02  0.69539000E-01
  0.70000000E+01  0.14000000E+02  0.84958000E+00 -0.18210000E-01 -0.91528000E-02
  0.70000000E+01  0.13000000E+02  0.75002000E+00 -0.28500000E-01 -0.71765000E-01
  0.70000000E+01  0.12000000E+02  0.64957000E+00 -0.37150000E-01 -0.11830000E+00
  0.70000000E+01  0.11000000E+02  0.54967000E+00 -0.43980000E-01 -0.16490000E+00
  0.70000000E+01  0.10000000E+02  0.44970000E+00 -0.48160000E-01 -0.21732000E+00
  0.70000000E+01  0.90000000E+01  0.34973000E+00 -0.48790000E-01 -0.22973000E+00
  0.70000000E+01  0.80000000E+01  0.24976000E+00 -0.46450000E-01 -0.27411000E+00
  0.70000000E+01  0.70000000E+01  0.14996000E+00 -0.40760000E-01 -0.31771000E+00
  0.70000000E+01  0.60000000E+01  0.10039000E+00 -0.36270000E-01 -0.34231000E+00
  0.70000000E+01  0.50000000E+01  0.65360000E-01 -0.32000000E-01 -0.37557000E+00
  0.70000000E+01  0.40000000E+01  0.40250000E-01 -0.28130000E-01 -0.33592000E+00
  0.70000000E+01  0.30000000E+01  0.19850000E-01 -0.22660000E-01 -0.22735000E+00
  0.70000000E+01  0.20000000E+01  0.57800000E-02 -0.13130000E-01  0.31501000E+00
  0.70000000E+01  0.10000000E+01  0.50000000E-03  0.36100000E-02  0.63624000E+00
  0.70000000E+01  0.45000000E+02  0.19300000E-02  0.75700000E-02  0.20998000E+00
  0.70000000E+01  0.44000000E+02  0.63000000E-02  0.13680000E-01 -0.25436000E+00
  0.70000000E+01  0.43000000E+02  0.12650000E-01  0.18890000E-01 -0.65116000E+00
  0.70000000E+01  0.42000000E+02  0.20120000E-01  0.22770000E-01 -0.10179000E+01
  0.70000000E+01  0.41000000E+02  0.29990000E-01  0.25830000E-01 -0.12439000E+01
  0.70000000E+01  0.40000000E+02  0.49950000E-01  0.29700000E-01 -0.12913000E+01
  0.70000000E+01  0.39000000E+02  0.74820000E-01  0.33270000E-01 -0.12749000E+01
  0.70000000E+01  0.38000000E+02  0.99900000E-01  0.36210000E-01 -0.12093000E+01
  0.70000000E+01  0.37000000E+02  0.13976000E+00  0.39950000E-01 -0.91821000E+00
  0.70000000E+01  0.36000000E+02  0.17991000E+00  0.42880000E-01 -0.78478000E+00
  0.70000000E+01  0.35000000E+02  0.21990000E+00  0.45140000E-01 -0.24462000E+00
  0.70000000E+01  0.34000000E+02  0.25976000E+00  0.46820000E-01 -0.20696000E+00
  0.70000000E+01  0.33000000E+02  0.29986000E+00  0.48000000E-01 -0.21902000E+00
  0.70000000E+01  0.32000000E+02  0.33979000E+00  0.48680000E-01 -0.23433000E+00
  0.70000000E+01  0.31000000E+02  0.37976000E+00  0.48920000E-01 -0.24642000E+00
  0.70000000E+01  0.30000000E+02  0.41988000E+00  0.48680000E-01 -0.27153000E+00
  0.70000000E+01  0.29000000E+02  0.45970000E+00  0.47890000E-01 -0.24545000E+00
  0.70000000E+01  0.28000000E+02  0.49987000E+00  0.46490000E-01 -0.23349000E+00
  0.70000000E+01  0.27000000E+02  0.53975000E+00  0.44520000E-01 -0.21333000E+00
  0.70000000E+01  0.26000000E+02  0.57985000E+00  0.42140000E-01 -0.19188000E+00
  0.70000000E+01  0.25000000E+02  0.61976000E+00  0.39400000E-01 -0.18200000E+00
  0.70000000E+01  0.24000000E+02  0.65966000E+00  0.36360000E-01 -0.17618000E+00
  0.70000000E+01  0.23000000E+02  0.69979000E+00  0.33080000E-01 -0.17483000E+00
  0.70000000E+01  0.22000000E+02  0.73980000E+00  0.29460000E-01 -0.18162000E+00
  0.70000000E+01  0.21000000E+02  0.77942000E+00  0.25700000E-01 -0.19500000E+00
  0.70000000E+01  0.20000000E+02  0.81985000E+00  0.21500000E-01 -0.21754000E+00
  0.70000000E+01  0.19000000E+02  0.85943000E+00  0.17120000E-01 -0.23825000E+00
  0.70000000E+01  0.18000000E+02  0.89961000E+00  0.12430000E-01 -0.25574000E+00
  0.70000000E+01  0.17000000E+02  0.94959000E+00  0.73300000E-02 -0.28041000E+00
  0.70000000E+01  0.16000000E+02  0.98455000E+00  0.27400000E-02 -0.21822000E+00
