/*--------------------------------*- C++ -*----------------------------------*\
  =========                 |
  \\      /  F ield         | OpenFOAM: The Open Source CFD Toolbox
   \\    /   O peration     | Website:  https://openfoam.org
    \\  /    A nd           | Version:  13
     \\/     M anipulation  |
\*---------------------------------------------------------------------------*/
FoamFile
{
    format      ascii;
    class       volScalarField;
    location    "2000";
    object      alphat;
}
// * * * * * * * * * * * * * * * * * * * * * * * * * * * * * * * * * * * * * //

dimensions      [1 -1 -1 0 0 0 0];

internalField   nonuniform List<scalar> 
294912
(
9.68779e-06
9.68755e-06
9.68792e-06
9.69003e-06
9.68377e-06
9.68753e-06
9.68877e-06
9.6883e-06
9.68987e-06
9.69112e-06
9.68166e-06
9.68376e-06
9.68421e-06
9.68759e-06
9.68865e-06
9.68955e-06
9.68853e-06
9.69003e-06
9.69089e-06
9.69172e-06
9.68098e-06
9.68189e-06
9.68206e-06
9.68362e-06
9.68414e-06
9.68487e-06
9.68749e-06
9.68863e-06
9.68939e-06
9.69042e-06
9.68864e-06
9.6901e-06
9.69094e-06
9.69145e-06
9.69198e-06
9.68204e-06
9.68163e-06
9.68147e-06
9.68152e-06
9.68226e-06
9.68314e-06
9.68341e-06
9.68398e-06
9.68477e-06
9.68592e-06
9.68734e-06
9.6885e-06
9.68934e-06
9.69023e-06
9.69124e-06
9.68872e-06
9.69009e-06
9.69091e-06
9.69143e-06
9.69171e-06
9.69209e-06
9.68481e-06
9.68322e-06
9.68279e-06
9.68104e-06
9.6821e-06
9.68287e-06
9.68113e-06
9.68182e-06
9.6833e-06
9.68472e-06
9.68324e-06
9.68381e-06
9.68461e-06
9.68578e-06
9.68738e-06
9.6872e-06
9.68833e-06
9.6892e-06
9.69014e-06
9.69102e-06
9.69209e-06
9.68877e-06
9.69004e-06
9.6908e-06
9.69132e-06
9.69163e-06
9.69181e-06
9.69199e-06
9.68907e-06
9.68653e-06
9.68519e-06
9.6824e-06
9.68395e-06
9.68435e-06
9.68036e-06
9.68132e-06
9.6834e-06
9.68474e-06
9.68093e-06
9.68149e-06
9.68282e-06
9.68479e-06
9.68699e-06
9.68309e-06
9.68368e-06
9.68447e-06
9.6856e-06
9.6872e-06
9.68905e-06
9.68703e-06
9.68816e-06
9.68903e-06
9.68998e-06
9.6909e-06
9.69184e-06
9.69286e-06
9.68878e-06
9.68997e-06
9.69066e-06
9.69114e-06
9.69148e-06
9.69171e-06
9.69172e-06
9.69181e-06
9.69507e-06
9.69122e-06
9.68952e-06
9.68528e-06
9.68689e-06
9.68784e-06
9.68135e-06
9.68272e-06
9.6854e-06
9.68661e-06
9.68003e-06
9.68066e-06
9.68248e-06
9.68512e-06
9.68762e-06
9.68078e-06
9.68134e-06
9.68251e-06
9.68428e-06
9.68697e-06
9.68983e-06
9.68293e-06
9.68354e-06
9.68436e-06
9.68547e-06
9.687e-06
9.68884e-06
9.69072e-06
9.68685e-06
9.68795e-06
9.68884e-06
9.6898e-06
9.69072e-06
9.6917e-06
9.6926e-06
9.69348e-06
9.68864e-06
9.68988e-06
9.69049e-06
9.69092e-06
9.69126e-06
9.6915e-06
9.69159e-06
9.69153e-06
9.69157e-06
9.70313e-06
9.69747e-06
9.69586e-06
9.68919e-06
9.69174e-06
9.69296e-06
9.68383e-06
9.68498e-06
9.68951e-06
9.69018e-06
9.68078e-06
9.68161e-06
9.68382e-06
9.68748e-06
9.69001e-06
9.67986e-06
9.68042e-06
9.68189e-06
9.6841e-06
9.68784e-06
9.69153e-06
9.68065e-06
9.68122e-06
9.68239e-06
9.68402e-06
9.68644e-06
9.68972e-06
9.69295e-06
9.68276e-06
9.68339e-06
9.68424e-06
9.68536e-06
9.68685e-06
9.6886e-06
9.69047e-06
9.69225e-06
9.6867e-06
9.68773e-06
9.68863e-06
9.68958e-06
9.69052e-06
9.69149e-06
9.69244e-06
9.69321e-06
9.69392e-06
9.68837e-06
9.68969e-06
9.69031e-06
9.69068e-06
9.69099e-06
9.69125e-06
9.69137e-06
9.69138e-06
9.69129e-06
9.69133e-06
9.71359e-06
9.70547e-06
9.70457e-06
9.69414e-06
9.69837e-06
9.70019e-06
9.68732e-06
9.68873e-06
9.69509e-06
9.6958e-06
9.68287e-06
9.68329e-06
9.6869e-06
9.69161e-06
9.69424e-06
9.68058e-06
9.68121e-06
9.6828e-06
9.6856e-06
9.69065e-06
9.69503e-06
9.67973e-06
9.6803e-06
9.68172e-06
9.68359e-06
9.68673e-06
9.69157e-06
9.6964e-06
9.68054e-06
9.68111e-06
9.68227e-06
9.6839e-06
9.68618e-06
9.68914e-06
9.69275e-06
9.69593e-06
9.68258e-06
9.68323e-06
9.6841e-06
9.68523e-06
9.68672e-06
9.6884e-06
9.69019e-06
9.69199e-06
9.69344e-06
9.68668e-06
9.68751e-06
9.68838e-06
9.68932e-06
9.69029e-06
9.69127e-06
9.6922e-06
9.69303e-06
9.69366e-06
9.69424e-06
9.68824e-06
9.68939e-06
9.69005e-06
9.69041e-06
9.6907e-06
9.69094e-06
9.69109e-06
9.69114e-06
9.69113e-06
9.69106e-06
9.69103e-06
9.72673e-06
9.71556e-06
9.71614e-06
9.70012e-06
9.70715e-06
9.71014e-06
9.69184e-06
9.69376e-06
9.70264e-06
9.70408e-06
9.68597e-06
9.68636e-06
9.6911e-06
9.69773e-06
9.70047e-06
9.68261e-06
9.68257e-06
9.68522e-06
9.68842e-06
9.69538e-06
9.70022e-06
9.68051e-06
9.68114e-06
9.68255e-06
9.68468e-06
9.68854e-06
9.69542e-06
9.70186e-06
9.67963e-06
9.6802e-06
9.68161e-06
9.68345e-06
9.68627e-06
9.69037e-06
9.69629e-06
9.70124e-06
9.68041e-06
9.68101e-06
9.68216e-06
9.68376e-06
9.68603e-06
9.68887e-06
9.69213e-06
9.69568e-06
9.6984e-06
9.68249e-06
9.68306e-06
9.68395e-06
9.68508e-06
9.68656e-06
9.68823e-06
9.68996e-06
9.69168e-06
9.69318e-06
9.69429e-06
9.68662e-06
9.68737e-06
9.68813e-06
9.68904e-06
9.69002e-06
9.691e-06
9.69195e-06
9.69277e-06
9.69346e-06
9.69398e-06
9.69446e-06
9.6882e-06
9.68915e-06
9.68972e-06
9.69009e-06
9.69037e-06
9.6906e-06
9.69075e-06
9.69085e-06
9.69088e-06
9.69089e-06
9.69082e-06
9.69078e-06
9.7432e-06
9.72799e-06
9.73094e-06
9.70708e-06
9.71856e-06
9.72332e-06
9.69731e-06
9.70013e-06
9.71276e-06
9.71546e-06
9.69018e-06
9.69069e-06
9.69674e-06
9.70642e-06
9.70957e-06
9.68556e-06
9.68537e-06
9.68874e-06
9.69276e-06
9.70202e-06
9.7073e-06
9.68261e-06
9.68253e-06
9.68478e-06
9.68689e-06
9.69169e-06
9.70096e-06
9.70915e-06
9.68043e-06
9.68112e-06
9.6825e-06
9.68452e-06
9.68773e-06
9.6931e-06
9.70201e-06
9.70964e-06
9.67955e-06
9.6801e-06
9.6815e-06
9.68333e-06
9.68611e-06
9.68989e-06
9.69498e-06
9.70099e-06
9.70593e-06
9.68028e-06
9.68091e-06
9.68207e-06
9.68362e-06
9.68584e-06
9.68865e-06
9.6918e-06
9.69502e-06
9.69816e-06
9.70005e-06
9.68249e-06
9.68292e-06
9.68379e-06
9.68491e-06
9.68638e-06
9.68801e-06
9.68974e-06
9.6914e-06
9.69284e-06
9.69404e-06
9.69489e-06
9.68638e-06
9.68723e-06
9.68794e-06
9.68875e-06
9.68972e-06
9.69069e-06
9.69165e-06
9.69248e-06
9.69318e-06
9.69377e-06
9.6942e-06
9.6946e-06
9.68816e-06
9.68901e-06
9.68943e-06
9.68973e-06
9.69001e-06
9.69023e-06
9.69039e-06
9.69049e-06
9.69058e-06
9.69065e-06
9.69065e-06
9.69058e-06
9.6906e-06
9.76357e-06
9.74303e-06
9.74998e-06
9.71522e-06
9.73245e-06
9.74028e-06
9.70356e-06
9.70787e-06
9.72565e-06
9.73027e-06
9.69534e-06
9.69613e-06
9.704e-06
9.71802e-06
9.72183e-06
9.68962e-06
9.68961e-06
9.69357e-06
9.69907e-06
9.71142e-06
9.71748e-06
9.68557e-06
9.68524e-06
9.6881e-06
9.69057e-06
9.69623e-06
9.70832e-06
9.71811e-06
9.68264e-06
9.68263e-06
9.68475e-06
9.6866e-06
9.69034e-06
9.69688e-06
9.70946e-06
9.72075e-06
9.68036e-06
9.68106e-06
9.68246e-06
9.68447e-06
9.68759e-06
9.69233e-06
9.69947e-06
9.70954e-06
9.71777e-06
9.67948e-06
9.68005e-06
9.68141e-06
9.68321e-06
9.68594e-06
9.68966e-06
9.69442e-06
9.6996e-06
9.70567e-06
9.70894e-06
9.68031e-06
9.68081e-06
9.68196e-06
9.68349e-06
9.68566e-06
9.6884e-06
9.6915e-06
9.69463e-06
9.69746e-06
9.69983e-06
9.70109e-06
9.68232e-06
9.68285e-06
9.68364e-06
9.68474e-06
9.68617e-06
9.68778e-06
9.68948e-06
9.69112e-06
9.69253e-06
9.69368e-06
9.69464e-06
9.69532e-06
9.68609e-06
9.68692e-06
9.68773e-06
9.68849e-06
9.6894e-06
9.69035e-06
9.69131e-06
9.69215e-06
9.69288e-06
9.69348e-06
9.69398e-06
9.69435e-06
9.69471e-06
9.68809e-06
9.68885e-06
9.68921e-06
9.6894e-06
9.68962e-06
9.68984e-06
9.69e-06
9.69011e-06
9.69023e-06
9.69034e-06
9.6904e-06
9.6904e-06
9.6904e-06
9.69045e-06
9.78786e-06
9.76127e-06
9.77372e-06
9.72458e-06
9.74939e-06
9.76239e-06
9.71062e-06
9.71673e-06
9.741e-06
9.74971e-06
9.70113e-06
9.70249e-06
9.71276e-06
9.73204e-06
9.73803e-06
9.69473e-06
9.69499e-06
9.69957e-06
9.70714e-06
9.72373e-06
9.73099e-06
9.6895e-06
9.6894e-06
9.69283e-06
9.69601e-06
9.70275e-06
9.71878e-06
9.73011e-06
9.68569e-06
9.6853e-06
9.68793e-06
9.69011e-06
9.69441e-06
9.70185e-06
9.71851e-06
9.73354e-06
9.6826e-06
9.6827e-06
9.68478e-06
9.68659e-06
9.6901e-06
9.69565e-06
9.70502e-06
9.72072e-06
9.73318e-06
9.6803e-06
9.68095e-06
9.68241e-06
9.68441e-06
9.68749e-06
9.69213e-06
9.69867e-06
9.70681e-06
9.7176e-06
9.72361e-06
9.67948e-06
9.68002e-06
9.68135e-06
9.68311e-06
9.68578e-06
9.6894e-06
9.69404e-06
9.699e-06
9.70422e-06
9.70874e-06
9.71071e-06
9.68028e-06
9.6808e-06
9.68188e-06
9.68336e-06
9.68547e-06
9.68815e-06
9.69116e-06
9.69423e-06
9.69701e-06
9.69912e-06
9.7009e-06
9.70175e-06
9.68204e-06
9.68263e-06
9.68352e-06
9.68457e-06
9.68595e-06
9.68753e-06
9.68919e-06
9.69079e-06
9.69219e-06
9.69334e-06
9.69427e-06
9.69507e-06
9.69564e-06
9.68572e-06
9.68655e-06
9.68738e-06
9.6882e-06
9.68909e-06
9.69e-06
9.69094e-06
9.69177e-06
9.69252e-06
9.69316e-06
9.69368e-06
9.69413e-06
9.69446e-06
9.69478e-06
9.68802e-06
9.68867e-06
9.68896e-06
9.68911e-06
9.68926e-06
9.68943e-06
9.68958e-06
9.6897e-06
9.68983e-06
9.68998e-06
9.69009e-06
9.69015e-06
9.69022e-06
9.69025e-06
9.69032e-06
9.81613e-06
9.78247e-06
9.80225e-06
9.73569e-06
9.77014e-06
9.78959e-06
9.71852e-06
9.72661e-06
9.75994e-06
9.77439e-06
9.70743e-06
9.70951e-06
9.72269e-06
9.74881e-06
9.75928e-06
9.70044e-06
9.70094e-06
9.70634e-06
9.71633e-06
9.73901e-06
9.74849e-06
9.69437e-06
9.69473e-06
9.69872e-06
9.70261e-06
9.71081e-06
9.73237e-06
9.74509e-06
9.68957e-06
9.68918e-06
9.69236e-06
9.69543e-06
9.70013e-06
9.70892e-06
9.73065e-06
9.74928e-06
9.68573e-06
9.6854e-06
9.68796e-06
9.6899e-06
9.69393e-06
9.70035e-06
9.71148e-06
9.73334e-06
9.75148e-06
9.6825e-06
9.68268e-06
9.68476e-06
9.6866e-06
9.69002e-06
9.69535e-06
9.70379e-06
9.71599e-06
9.73284e-06
9.74465e-06
9.68028e-06
9.68085e-06
9.68236e-06
9.68434e-06
9.68737e-06
9.69192e-06
9.69834e-06
9.70592e-06
9.71478e-06
9.72352e-06
9.72717e-06
9.6795e-06
9.68001e-06
9.6813e-06
9.68303e-06
9.68564e-06
9.68916e-06
9.69363e-06
9.69853e-06
9.7035e-06
9.70725e-06
9.71065e-06
9.7113e-06
9.68015e-06
9.68073e-06
9.68183e-06
9.68326e-06
9.68531e-06
9.68789e-06
9.6908e-06
9.6938e-06
9.69652e-06
9.69862e-06
9.70019e-06
9.70157e-06
9.70216e-06
9.68171e-06
9.68234e-06
9.68327e-06
9.68437e-06
9.68571e-06
9.68728e-06
9.68888e-06
9.69043e-06
9.6918e-06
9.69295e-06
9.6939e-06
9.69469e-06
9.6954e-06
9.69589e-06
9.6853e-06
9.68613e-06
9.68698e-06
9.6878e-06
9.68873e-06
9.68964e-06
9.69055e-06
9.69137e-06
9.69212e-06
9.69278e-06
9.69335e-06
9.69382e-06
9.69423e-06
9.69454e-06
9.69485e-06
9.68799e-06
9.68845e-06
9.68869e-06
9.6888e-06
9.68892e-06
9.68905e-06
9.68916e-06
9.68928e-06
9.68942e-06
9.68958e-06
9.68972e-06
9.68984e-06
9.68997e-06
9.69007e-06
9.69013e-06
9.69021e-06
9.84771e-06
9.80683e-06
9.83475e-06
9.74931e-06
9.79423e-06
9.82105e-06
9.72759e-06
9.73931e-06
9.78268e-06
9.8035e-06
9.71417e-06
9.71731e-06
9.73406e-06
9.77014e-06
9.78528e-06
9.7065e-06
9.70688e-06
9.71361e-06
9.72717e-06
9.75755e-06
9.77102e-06
9.6997e-06
9.70064e-06
9.70512e-06
9.70913e-06
9.72048e-06
9.7488e-06
9.76379e-06
9.69426e-06
9.69406e-06
9.69788e-06
9.70191e-06
9.70644e-06
9.71732e-06
9.74562e-06
9.76726e-06
9.68964e-06
9.68913e-06
9.69207e-06
9.69475e-06
9.69944e-06
9.70669e-06
9.71969e-06
9.74893e-06
9.77373e-06
9.68565e-06
9.68542e-06
9.688e-06
9.68985e-06
9.69363e-06
9.69973e-06
9.71006e-06
9.72583e-06
9.7507e-06
9.77152e-06
9.68242e-06
9.68263e-06
9.6847e-06
9.68656e-06
9.68993e-06
9.69514e-06
9.70331e-06
9.71463e-06
9.72798e-06
9.74448e-06
9.752e-06
9.68029e-06
9.68083e-06
9.68232e-06
9.68426e-06
9.68725e-06
9.6917e-06
9.69796e-06
9.7054e-06
9.71377e-06
9.72064e-06
9.72774e-06
9.72672e-06
9.67949e-06
9.68002e-06
9.68127e-06
9.68296e-06
9.68551e-06
9.68893e-06
9.69324e-06
9.698e-06
9.70283e-06
9.70648e-06
9.70917e-06
9.71138e-06
9.71128e-06
9.67997e-06
9.6806e-06
9.68173e-06
9.68314e-06
9.68514e-06
9.68763e-06
9.69044e-06
9.69336e-06
9.69599e-06
9.69805e-06
9.69965e-06
9.70086e-06
9.70199e-06
9.70246e-06
9.68131e-06
9.68202e-06
9.68299e-06
9.68408e-06
9.68544e-06
9.687e-06
9.68855e-06
9.69005e-06
9.69138e-06
9.69252e-06
9.69348e-06
9.69431e-06
9.695e-06
9.69564e-06
9.69608e-06
9.68472e-06
9.68564e-06
9.68653e-06
9.68738e-06
9.68829e-06
9.68921e-06
9.69013e-06
9.69094e-06
9.69168e-06
9.69236e-06
9.69296e-06
9.69348e-06
9.69392e-06
9.69431e-06
9.6946e-06
9.6949e-06
9.68811e-06
9.68828e-06
9.68838e-06
9.68847e-06
9.68855e-06
9.68867e-06
9.68877e-06
9.68886e-06
9.68898e-06
9.68915e-06
9.68932e-06
9.68947e-06
9.68966e-06
9.68982e-06
9.68995e-06
9.69003e-06
9.69011e-06
9.88218e-06
9.83411e-06
9.87081e-06
9.76563e-06
9.8217e-06
9.85646e-06
9.738e-06
9.75547e-06
9.80936e-06
9.83664e-06
9.722e-06
9.72682e-06
9.74863e-06
9.79461e-06
9.8158e-06
9.71288e-06
9.71281e-06
9.72219e-06
9.74039e-06
9.77923e-06
9.79803e-06
9.70521e-06
9.70658e-06
9.71143e-06
9.71646e-06
9.73238e-06
9.76825e-06
9.78727e-06
9.69931e-06
9.69929e-06
9.70389e-06
9.7083e-06
9.71282e-06
9.72722e-06
9.76329e-06
9.78805e-06
9.69434e-06
9.6937e-06
9.69701e-06
9.70058e-06
9.70567e-06
9.7134e-06
9.72846e-06
9.76676e-06
9.79812e-06
9.68957e-06
9.68911e-06
9.692e-06
9.69434e-06
9.69855e-06
9.70566e-06
9.71755e-06
9.73689e-06
9.77257e-06
9.80361e-06
9.68553e-06
9.68536e-06
9.68796e-06
9.68978e-06
9.69346e-06
9.69927e-06
9.70917e-06
9.72427e-06
9.74277e-06
9.77094e-06
9.78548e-06
9.68239e-06
9.68262e-06
9.68462e-06
9.68647e-06
9.6898e-06
9.69491e-06
9.70286e-06
9.7138e-06
9.72651e-06
9.73954e-06
9.75293e-06
9.75224e-06
9.68032e-06
9.68086e-06
9.68229e-06
9.68417e-06
9.68712e-06
9.69148e-06
9.69758e-06
9.70482e-06
9.71295e-06
9.71958e-06
9.72497e-06
9.72769e-06
9.72592e-06
9.67945e-06
9.68002e-06
9.68126e-06
9.68289e-06
9.68538e-06
9.68871e-06
9.69288e-06
9.69744e-06
9.70214e-06
9.70567e-06
9.70839e-06
9.70996e-06
9.71136e-06
9.71117e-06
9.67972e-06
9.68044e-06
9.6816e-06
9.68299e-06
9.68494e-06
9.68736e-06
9.69008e-06
9.69291e-06
9.69542e-06
9.69743e-06
9.69903e-06
9.70029e-06
9.70128e-06
9.70229e-06
9.7027e-06
9.68079e-06
9.68162e-06
9.68268e-06
9.68379e-06
9.68512e-06
9.68666e-06
9.68819e-06
9.68964e-06
9.69093e-06
9.69205e-06
9.69301e-06
9.69386e-06
9.69461e-06
9.69524e-06
9.69584e-06
9.69623e-06
9.68388e-06
9.68506e-06
9.68601e-06
9.68691e-06
9.68784e-06
9.68874e-06
9.68965e-06
9.69048e-06
9.69122e-06
9.6919e-06
9.69252e-06
9.69308e-06
9.69357e-06
9.69399e-06
9.69437e-06
9.69465e-06
9.69495e-06
9.6882e-06
9.68823e-06
9.68811e-06
9.6881e-06
9.68817e-06
9.68827e-06
9.68837e-06
9.68845e-06
9.68856e-06
9.68871e-06
9.68889e-06
9.68908e-06
9.68929e-06
9.68951e-06
9.6897e-06
9.68985e-06
9.68993e-06
9.69001e-06
9.91951e-06
9.86363e-06
9.91068e-06
9.78381e-06
9.85207e-06
9.89613e-06
9.74977e-06
9.7739e-06
9.83902e-06
9.87441e-06
9.73068e-06
9.73863e-06
9.76654e-06
9.82147e-06
9.8512e-06
9.72009e-06
9.7207e-06
9.73286e-06
9.75742e-06
9.8038e-06
9.83005e-06
9.71103e-06
9.71277e-06
9.71821e-06
9.72608e-06
9.74725e-06
9.79044e-06
9.81534e-06
9.70458e-06
9.70438e-06
9.70997e-06
9.71496e-06
9.72031e-06
9.73992e-06
9.78377e-06
9.8132e-06
9.69951e-06
9.69857e-06
9.70203e-06
9.70627e-06
9.71216e-06
9.71983e-06
9.7386e-06
9.78664e-06
9.82414e-06
9.69433e-06
9.69365e-06
9.69673e-06
9.69955e-06
9.70397e-06
9.71211e-06
9.72474e-06
9.74748e-06
9.79682e-06
9.83638e-06
9.68939e-06
9.68901e-06
9.69191e-06
9.69413e-06
9.69803e-06
9.70457e-06
9.71605e-06
9.73441e-06
9.75969e-06
9.802e-06
9.82862e-06
9.68547e-06
9.68532e-06
9.68785e-06
9.68963e-06
9.69329e-06
9.69892e-06
9.70843e-06
9.72296e-06
9.7409e-06
9.76292e-06
9.78613e-06
9.79039e-06
9.68241e-06
9.68267e-06
9.68454e-06
9.68636e-06
9.68965e-06
9.69466e-06
9.70239e-06
9.71295e-06
9.72544e-06
9.738e-06
9.74808e-06
9.75419e-06
9.74893e-06
9.68035e-06
9.6809e-06
9.68228e-06
9.68411e-06
9.68699e-06
9.69124e-06
9.69717e-06
9.70423e-06
9.71207e-06
9.71863e-06
9.72394e-06
9.72525e-06
9.72675e-06
9.72446e-06
9.67935e-06
9.68001e-06
9.68125e-06
9.68285e-06
9.68526e-06
9.68849e-06
9.69255e-06
9.69689e-06
9.70142e-06
9.70481e-06
9.70753e-06
9.70917e-06
9.70997e-06
9.71123e-06
9.7111e-06
9.6794e-06
9.68021e-06
9.68145e-06
9.68284e-06
9.68472e-06
9.68705e-06
9.6897e-06
9.69241e-06
9.69481e-06
9.69676e-06
9.69835e-06
9.69963e-06
9.70069e-06
9.70157e-06
9.70251e-06
9.70289e-06
9.68022e-06
9.68119e-06
9.68231e-06
9.68344e-06
9.68482e-06
9.6863e-06
9.68779e-06
9.6892e-06
9.69045e-06
9.69154e-06
9.6925e-06
9.69336e-06
9.69415e-06
9.69483e-06
9.69543e-06
9.69599e-06
9.69636e-06
9.68335e-06
9.68424e-06
9.68543e-06
9.68641e-06
9.68735e-06
9.68826e-06
9.68915e-06
9.68996e-06
9.69071e-06
9.69141e-06
9.69205e-06
9.69263e-06
9.69316e-06
9.69364e-06
9.69405e-06
9.69442e-06
9.6947e-06
9.695e-06
9.68804e-06
9.68813e-06
9.68793e-06
9.68775e-06
9.68776e-06
9.68784e-06
9.68795e-06
9.68804e-06
9.68814e-06
9.6883e-06
9.68847e-06
9.68867e-06
9.68891e-06
9.68915e-06
9.68939e-06
9.6896e-06
9.68976e-06
9.68983e-06
9.68997e-06
9.95966e-06
9.89515e-06
9.95463e-06
9.80298e-06
9.88526e-06
9.94061e-06
9.76262e-06
9.79359e-06
9.87192e-06
9.91754e-06
9.73985e-06
9.75165e-06
9.78598e-06
9.8521e-06
9.89191e-06
9.72808e-06
9.72966e-06
9.74509e-06
9.7757e-06
9.83225e-06
9.86726e-06
9.71776e-06
9.72032e-06
9.72649e-06
9.73657e-06
9.76468e-06
9.81602e-06
9.84864e-06
9.71004e-06
9.70985e-06
9.71686e-06
9.72273e-06
9.72927e-06
9.75568e-06
9.80658e-06
9.84245e-06
9.70508e-06
9.70315e-06
9.70686e-06
9.7126e-06
9.71898e-06
9.72717e-06
9.7519e-06
9.80863e-06
9.85289e-06
9.69973e-06
9.69861e-06
9.70157e-06
9.7039e-06
9.70947e-06
9.71855e-06
9.7315e-06
9.75869e-06
9.82155e-06
9.87018e-06
9.69413e-06
9.69355e-06
9.69669e-06
9.69925e-06
9.70279e-06
9.71002e-06
9.72278e-06
9.7435e-06
9.77586e-06
9.8338e-06
9.87532e-06
9.68921e-06
9.68887e-06
9.69171e-06
9.69386e-06
9.69768e-06
9.70384e-06
9.71463e-06
9.73229e-06
9.75677e-06
9.7883e-06
9.82792e-06
9.84312e-06
9.68549e-06
9.68537e-06
9.68773e-06
9.68944e-06
9.69307e-06
9.69857e-06
9.70778e-06
9.72177e-06
9.73912e-06
9.76078e-06
9.77813e-06
9.79345e-06
9.7843e-06
9.68246e-06
9.68276e-06
9.68447e-06
9.68624e-06
9.68947e-06
9.69439e-06
9.70191e-06
9.71206e-06
9.72432e-06
9.73663e-06
9.74652e-06
9.75011e-06
9.75131e-06
9.74479e-06
9.68035e-06
9.68098e-06
9.68228e-06
9.68406e-06
9.68687e-06
9.69099e-06
9.69671e-06
9.70361e-06
9.71116e-06
9.71758e-06
9.72285e-06
9.72434e-06
9.72436e-06
9.72548e-06
9.72309e-06
9.67925e-06
9.67998e-06
9.68125e-06
9.68283e-06
9.68516e-06
9.68829e-06
9.69218e-06
9.69633e-06
9.70068e-06
9.7039e-06
9.7066e-06
9.70823e-06
9.70916e-06
9.70986e-06
9.71113e-06
9.71104e-06
9.67918e-06
9.67995e-06
9.6812e-06
9.68265e-06
9.68452e-06
9.68673e-06
9.68931e-06
9.69189e-06
9.69418e-06
9.69605e-06
9.6976e-06
9.69888e-06
9.69999e-06
9.70096e-06
9.70179e-06
9.7027e-06
9.70306e-06
9.68004e-06
9.68068e-06
9.6819e-06
9.68307e-06
9.68448e-06
9.68593e-06
9.68738e-06
9.68872e-06
9.68993e-06
9.69099e-06
9.69194e-06
9.69282e-06
9.69362e-06
9.69436e-06
9.69501e-06
9.69558e-06
9.69611e-06
9.69647e-06
9.68299e-06
9.68381e-06
9.6847e-06
9.68582e-06
9.68682e-06
9.68775e-06
9.68862e-06
9.68943e-06
9.69017e-06
9.69088e-06
9.69154e-06
9.69215e-06
9.69271e-06
9.69323e-06
9.69369e-06
9.6941e-06
9.69447e-06
9.69475e-06
9.69506e-06
9.68779e-06
9.68776e-06
9.68767e-06
9.68745e-06
9.68734e-06
9.68741e-06
9.6875e-06
9.68761e-06
9.68773e-06
9.68788e-06
9.68806e-06
9.68825e-06
9.6885e-06
9.68877e-06
9.68904e-06
9.68929e-06
9.68951e-06
9.68967e-06
9.68979e-06
9.68982e-06
1.00026e-05
9.92839e-06
1.0003e-05
9.82264e-06
9.92128e-06
9.99045e-06
9.77576e-06
9.81392e-06
9.9085e-06
9.9667e-06
9.74879e-06
9.76487e-06
9.80593e-06
9.88742e-06
9.93853e-06
9.73638e-06
9.7382e-06
9.75721e-06
9.79454e-06
9.86564e-06
9.91005e-06
9.72551e-06
9.72838e-06
9.73371e-06
9.74692e-06
9.78335e-06
9.84611e-06
9.88733e-06
9.7162e-06
9.71709e-06
9.72487e-06
9.72896e-06
9.73839e-06
9.77381e-06
9.83329e-06
9.8771e-06
9.71077e-06
9.7076e-06
9.71282e-06
9.72047e-06
9.72525e-06
9.73471e-06
9.76824e-06
9.83256e-06
9.88529e-06
9.70579e-06
9.70347e-06
9.70586e-06
9.70866e-06
9.71586e-06
9.72484e-06
9.7381e-06
9.77289e-06
9.84704e-06
9.90566e-06
9.69971e-06
9.69874e-06
9.7018e-06
9.70351e-06
9.7067e-06
9.71522e-06
9.72913e-06
9.75146e-06
9.79062e-06
9.86622e-06
9.92413e-06
9.69383e-06
9.69337e-06
9.69658e-06
9.69899e-06
9.70233e-06
9.70864e-06
9.72027e-06
9.74062e-06
9.77151e-06
9.8111e-06
9.874e-06
9.90315e-06
9.68911e-06
9.68876e-06
9.69147e-06
9.69353e-06
9.69731e-06
9.70324e-06
9.71354e-06
9.73031e-06
9.75407e-06
9.78463e-06
9.81398e-06
9.84609e-06
9.83636e-06
9.68555e-06
9.68549e-06
9.68759e-06
9.68924e-06
9.69282e-06
9.69821e-06
9.70714e-06
9.72065e-06
9.73749e-06
9.75858e-06
9.77607e-06
9.78656e-06
9.7886e-06
9.77634e-06
9.68254e-06
9.68294e-06
9.68444e-06
9.68615e-06
9.68929e-06
9.69409e-06
9.70142e-06
9.7112e-06
9.72313e-06
9.73515e-06
9.74491e-06
9.74895e-06
9.74747e-06
9.74762e-06
9.74014e-06
9.68035e-06
9.68102e-06
9.68231e-06
9.68401e-06
9.68675e-06
9.69076e-06
9.69626e-06
9.70295e-06
9.71022e-06
9.71646e-06
9.72163e-06
9.72324e-06
9.72351e-06
9.72319e-06
9.72409e-06
9.72195e-06
9.67919e-06
9.67991e-06
9.68121e-06
9.68281e-06
9.68508e-06
9.68812e-06
9.69181e-06
9.69581e-06
9.69992e-06
9.70297e-06
9.7056e-06
9.70718e-06
9.70815e-06
9.70907e-06
9.70978e-06
9.71103e-06
9.711e-06
9.67907e-06
9.67977e-06
9.68102e-06
9.68238e-06
9.68426e-06
9.68644e-06
9.68893e-06
9.69135e-06
9.69352e-06
9.6953e-06
9.69681e-06
9.69807e-06
9.69921e-06
9.70024e-06
9.70117e-06
9.70197e-06
9.70285e-06
9.70322e-06
9.68019e-06
9.68071e-06
9.68151e-06
9.68266e-06
9.68411e-06
9.68557e-06
9.68694e-06
9.68825e-06
9.68939e-06
9.69042e-06
9.69135e-06
9.69223e-06
9.69305e-06
9.69382e-06
9.69453e-06
9.69515e-06
9.6957e-06
9.69623e-06
9.69658e-06
9.68272e-06
9.68343e-06
9.6843e-06
9.6852e-06
9.68623e-06
9.68719e-06
9.68808e-06
9.68887e-06
9.68961e-06
9.69031e-06
9.69099e-06
9.69163e-06
9.69222e-06
9.69277e-06
9.69328e-06
9.69374e-06
9.69415e-06
9.69452e-06
9.69481e-06
9.69513e-06
9.68754e-06
9.68733e-06
9.6872e-06
9.68709e-06
9.68697e-06
9.68695e-06
9.68705e-06
9.68715e-06
9.68729e-06
9.68746e-06
9.68765e-06
9.68785e-06
9.68809e-06
9.68836e-06
9.68866e-06
9.68894e-06
9.6892e-06
9.68947e-06
9.68957e-06
9.68966e-06
9.68967e-06
1.00483e-05
9.96298e-06
1.00561e-05
9.84257e-06
9.95993e-06
1.00464e-05
9.78862e-06
9.8348e-06
9.94868e-06
1.00227e-05
9.75674e-06
9.77757e-06
9.82646e-06
9.92749e-06
9.99195e-06
9.74394e-06
9.74514e-06
9.76866e-06
9.81406e-06
9.90419e-06
9.9592e-06
9.73355e-06
9.73547e-06
9.73873e-06
9.75707e-06
9.80246e-06
9.88141e-06
9.93174e-06
9.72336e-06
9.72521e-06
9.73117e-06
9.73283e-06
9.74751e-06
9.7926e-06
9.86476e-06
9.91717e-06
9.7167e-06
9.71352e-06
9.72068e-06
9.72646e-06
9.72929e-06
9.74206e-06
9.78677e-06
9.86059e-06
9.92239e-06
9.71194e-06
9.70789e-06
9.71035e-06
9.71591e-06
9.72211e-06
9.72952e-06
9.74404e-06
9.78978e-06
9.87393e-06
9.94369e-06
9.70624e-06
9.70411e-06
9.7064e-06
9.70743e-06
9.71178e-06
9.72106e-06
9.73446e-06
9.75769e-06
9.8071e-06
9.89846e-06
9.97301e-06
9.69947e-06
9.69879e-06
9.70204e-06
9.70372e-06
9.70618e-06
9.71213e-06
9.72539e-06
9.74768e-06
9.78292e-06
9.83191e-06
9.92061e-06
9.96883e-06
9.69352e-06
9.69315e-06
9.69639e-06
9.69875e-06
9.70203e-06
9.70786e-06
9.71852e-06
9.7375e-06
9.76768e-06
9.80582e-06
9.85064e-06
9.90553e-06
9.90949e-06
9.68911e-06
9.68871e-06
9.69121e-06
9.69317e-06
9.69693e-06
9.70264e-06
9.71253e-06
9.7286e-06
9.75142e-06
9.78122e-06
9.81035e-06
9.83307e-06
9.84393e-06
9.82736e-06
9.68567e-06
9.68568e-06
9.68747e-06
9.68907e-06
9.69257e-06
9.69783e-06
9.7065e-06
9.71952e-06
9.73588e-06
9.7564e-06
9.77372e-06
9.78513e-06
9.78233e-06
9.78213e-06
9.76612e-06
9.68261e-06
9.68309e-06
9.68446e-06
9.68611e-06
9.68912e-06
9.69378e-06
9.70087e-06
9.71041e-06
9.72187e-06
9.73354e-06
9.74316e-06
9.7476e-06
9.74653e-06
9.74402e-06
9.74318e-06
9.7361e-06
9.68035e-06
9.68109e-06
9.68234e-06
9.68401e-06
9.68663e-06
9.69051e-06
9.69587e-06
9.70226e-06
9.70918e-06
9.71528e-06
9.72031e-06
9.72192e-06
9.72241e-06
9.72237e-06
9.72185e-06
9.72289e-06
9.72107e-06
9.6794e-06
9.68007e-06
9.68123e-06
9.68274e-06
9.68499e-06
9.68797e-06
9.69141e-06
9.6953e-06
9.69915e-06
9.70204e-06
9.70456e-06
9.70601e-06
9.70704e-06
9.70808e-06
9.70896e-06
9.70969e-06
9.71097e-06
9.71097e-06
9.67954e-06
9.67993e-06
9.68082e-06
9.68214e-06
9.68399e-06
9.68612e-06
9.68852e-06
9.69084e-06
9.69284e-06
9.69453e-06
9.69597e-06
9.69721e-06
9.69835e-06
9.69943e-06
9.70044e-06
9.70133e-06
9.70212e-06
9.70299e-06
9.70337e-06
9.68023e-06
9.6808e-06
9.68148e-06
9.68234e-06
9.68372e-06
9.68511e-06
9.68655e-06
9.68774e-06
9.68886e-06
9.68983e-06
9.69074e-06
9.69161e-06
9.69244e-06
9.69324e-06
9.69398e-06
9.69466e-06
9.69527e-06
9.69581e-06
9.69634e-06
9.6967e-06
9.68245e-06
9.6831e-06
9.68389e-06
9.68477e-06
9.68567e-06
9.68659e-06
9.68749e-06
9.6883e-06
9.68903e-06
9.68974e-06
9.69041e-06
9.69107e-06
9.69169e-06
9.69228e-06
9.69282e-06
9.69332e-06
9.69379e-06
9.6942e-06
9.69458e-06
9.69488e-06
9.69521e-06
9.68733e-06
9.68697e-06
9.68672e-06
9.6866e-06
9.68654e-06
9.68654e-06
9.68657e-06
9.68669e-06
9.68683e-06
9.68701e-06
9.68724e-06
9.68745e-06
9.68769e-06
9.68796e-06
9.68825e-06
9.68856e-06
9.68886e-06
9.68917e-06
9.68935e-06
9.68948e-06
9.68949e-06
9.6895e-06
1.00967e-05
9.99852e-06
1.01143e-05
9.86257e-06
1.00008e-05
1.01093e-05
9.80094e-06
9.85622e-06
9.99207e-06
1.00865e-05
9.76351e-06
9.78964e-06
9.84787e-06
9.97139e-06
1.00534e-05
9.74986e-06
9.75039e-06
9.77958e-06
9.83464e-06
9.94709e-06
1.0016e-05
9.7409e-06
9.7404e-06
9.74177e-06
9.76701e-06
9.82191e-06
9.92159e-06
9.98308e-06
9.73096e-06
9.73231e-06
9.73472e-06
9.73473e-06
9.75659e-06
9.81099e-06
9.90144e-06
9.96294e-06
9.72328e-06
9.72101e-06
9.72727e-06
9.72959e-06
9.73089e-06
9.74967e-06
9.80516e-06
9.89326e-06
9.96428e-06
9.71811e-06
9.71272e-06
9.71668e-06
9.72212e-06
9.72602e-06
9.73128e-06
9.74982e-06
9.80841e-06
9.90429e-06
9.98541e-06
9.71296e-06
9.70892e-06
9.71057e-06
9.71299e-06
9.71788e-06
9.72581e-06
9.73752e-06
9.76253e-06
9.82579e-06
9.93065e-06
1.00223e-05
9.70643e-06
9.70473e-06
9.70718e-06
9.70772e-06
9.7101e-06
9.71732e-06
9.73037e-06
9.7525e-06
9.79055e-06
9.85404e-06
9.9652e-06
1.00354e-05
9.69907e-06
9.69876e-06
9.70225e-06
9.70407e-06
9.7062e-06
9.71127e-06
9.72211e-06
9.74332e-06
9.77769e-06
9.82331e-06
9.88463e-06
9.96755e-06
9.99256e-06
9.69329e-06
9.69291e-06
9.69612e-06
9.69851e-06
9.7019e-06
9.70728e-06
9.71724e-06
9.73497e-06
9.76383e-06
9.80078e-06
9.84523e-06
9.88221e-06
9.91843e-06
9.89491e-06
9.6892e-06
9.68882e-06
9.69096e-06
9.69278e-06
9.69651e-06
9.70208e-06
9.71156e-06
9.72696e-06
9.74891e-06
9.77786e-06
9.80693e-06
9.83019e-06
9.83363e-06
9.83618e-06
9.81017e-06
9.68583e-06
9.68589e-06
9.68743e-06
9.68896e-06
9.69232e-06
9.69745e-06
9.70586e-06
9.71836e-06
9.73425e-06
9.75411e-06
9.77136e-06
9.78318e-06
9.78146e-06
9.77652e-06
9.77288e-06
9.75661e-06
9.68268e-06
9.68337e-06
9.68449e-06
9.68612e-06
9.68902e-06
9.6935e-06
9.70031e-06
9.70953e-06
9.72048e-06
9.73188e-06
9.74124e-06
9.74586e-06
9.74523e-06
9.74323e-06
9.73975e-06
9.73918e-06
9.73281e-06
9.68053e-06
9.6812e-06
9.68247e-06
9.68403e-06
9.68659e-06
9.69029e-06
9.69543e-06
9.70152e-06
9.70815e-06
9.71402e-06
9.71888e-06
9.72038e-06
9.72107e-06
9.72126e-06
9.72104e-06
9.72069e-06
9.72193e-06
9.7204e-06
9.67968e-06
9.68019e-06
9.68128e-06
9.68284e-06
9.68498e-06
9.68777e-06
9.69104e-06
9.69484e-06
9.69837e-06
9.70113e-06
9.70347e-06
9.70476e-06
9.70586e-06
9.70697e-06
9.70795e-06
9.70886e-06
9.70963e-06
9.71091e-06
9.71102e-06
9.67984e-06
9.68024e-06
9.68093e-06
9.68197e-06
9.68366e-06
9.68576e-06
9.68811e-06
9.69025e-06
9.69218e-06
9.69375e-06
9.6951e-06
9.69629e-06
9.69744e-06
9.69855e-06
9.69961e-06
9.70059e-06
9.70148e-06
9.70226e-06
9.70313e-06
9.70354e-06
9.67996e-06
9.68052e-06
9.68139e-06
9.68223e-06
9.68337e-06
9.68473e-06
9.68598e-06
9.68728e-06
9.68828e-06
9.68924e-06
9.69011e-06
9.69096e-06
9.69179e-06
9.69261e-06
9.69338e-06
9.69411e-06
9.69478e-06
9.69538e-06
9.69592e-06
9.69646e-06
9.69683e-06
9.68218e-06
9.68275e-06
9.68351e-06
9.68433e-06
9.68518e-06
9.68605e-06
9.68687e-06
9.68769e-06
9.68843e-06
9.68913e-06
9.68982e-06
9.69048e-06
9.69112e-06
9.69174e-06
9.69232e-06
9.69286e-06
9.69337e-06
9.69384e-06
9.69426e-06
9.69465e-06
9.69496e-06
9.69529e-06
9.68715e-06
9.68663e-06
9.68629e-06
9.6861e-06
9.68604e-06
9.68607e-06
9.68614e-06
9.6862e-06
9.68637e-06
9.68656e-06
9.68679e-06
9.68704e-06
9.68729e-06
9.68757e-06
9.68786e-06
9.68816e-06
9.68848e-06
9.68883e-06
9.68904e-06
9.68924e-06
9.68933e-06
9.68935e-06
9.68932e-06
1.01474e-05
1.00345e-05
1.0178e-05
9.88252e-06
1.00432e-05
1.01805e-05
9.81266e-06
9.87824e-06
1.00375e-05
1.01602e-05
9.76933e-06
9.8012e-06
9.87026e-06
1.00175e-05
1.01249e-05
9.75407e-06
9.75458e-06
9.7903e-06
9.85616e-06
9.99291e-06
1.0082e-05
9.74662e-06
9.74301e-06
9.74381e-06
9.77684e-06
9.84183e-06
9.96529e-06
1.00425e-05
9.738e-06
9.73738e-06
9.73562e-06
9.73573e-06
9.76547e-06
9.82899e-06
9.94263e-06
1.00155e-05
9.73033e-06
9.72811e-06
9.73113e-06
9.73011e-06
9.73133e-06
9.75732e-06
9.82222e-06
9.93085e-06
1.00111e-05
9.72455e-06
9.7189e-06
9.72313e-06
9.72572e-06
9.72695e-06
9.73127e-06
9.75627e-06
9.82604e-06
9.93832e-06
1.00311e-05
9.71968e-06
9.71346e-06
9.71543e-06
9.71867e-06
9.72223e-06
9.72752e-06
9.73775e-06
9.76705e-06
9.84536e-06
9.9651e-06
1.00723e-05
9.71376e-06
9.7102e-06
9.71146e-06
9.71212e-06
9.71517e-06
9.7222e-06
9.73346e-06
9.75466e-06
9.79559e-06
9.87718e-06
1.00071e-05
1.01025e-05
9.70637e-06
9.70526e-06
9.70811e-06
9.70845e-06
9.70982e-06
9.71536e-06
9.72701e-06
9.74781e-06
9.78375e-06
9.83553e-06
9.91775e-06
1.00297e-05
1.0079e-05
9.69862e-06
9.69857e-06
9.70242e-06
9.70452e-06
9.70655e-06
9.71092e-06
9.72062e-06
9.73973e-06
9.77267e-06
9.81637e-06
9.87518e-06
9.93091e-06
9.99921e-06
9.97945e-06
9.69321e-06
9.69277e-06
9.69573e-06
9.69818e-06
9.70179e-06
9.70699e-06
9.71625e-06
9.73291e-06
9.76029e-06
9.796e-06
9.84004e-06
9.87771e-06
9.8977e-06
9.90786e-06
9.87453e-06
9.68943e-06
9.68907e-06
9.69078e-06
9.69237e-06
9.69604e-06
9.70149e-06
9.71067e-06
9.72535e-06
9.74639e-06
9.7745e-06
9.80346e-06
9.82695e-06
9.83306e-06
9.82481e-06
9.82208e-06
9.79316e-06
9.68599e-06
9.68623e-06
9.68741e-06
9.68893e-06
9.69213e-06
9.69706e-06
9.70522e-06
9.71718e-06
9.73263e-06
9.75171e-06
9.76878e-06
9.78097e-06
9.77971e-06
9.77638e-06
9.76762e-06
9.76396e-06
9.74858e-06
9.68276e-06
9.68348e-06
9.68467e-06
9.68621e-06
9.689e-06
9.69331e-06
9.69982e-06
9.70863e-06
9.71906e-06
9.73015e-06
9.73923e-06
9.74381e-06