/*--------------------------------*- C++ -*----------------------------------*\
  =========                 |
  \\      /  F ield         | OpenFOAM: The Open Source CFD Toolbox
   \\    /   O peration     | Website:  https://openfoam.org
    \\  /    A nd           | Version:  13
     \\/     M anipulation  |
\*---------------------------------------------------------------------------*/
FoamFile
{
    format      ascii;
    class       volScalarField;
    location    "2000";
    object      nut;
}
// * * * * * * * * * * * * * * * * * * * * * * * * * * * * * * * * * * * * * //

dimensions      [0 2 -1 0 0 0 0];

internalField   nonuniform List<scalar> 
294912
(
8.82568e-06
8.82549e-06
8.82582e-06
8.82707e-06
8.82247e-06
8.82547e-06
8.82595e-06
8.82616e-06
8.82695e-06
8.8276e-06
8.82075e-06
8.82247e-06
8.82236e-06
8.82552e-06
8.82585e-06
8.82609e-06
8.82638e-06
8.82711e-06
8.82742e-06
8.8278e-06
8.82027e-06
8.82097e-06
8.82068e-06
8.82235e-06
8.82231e-06
8.82243e-06
8.82544e-06
8.82583e-06
8.82596e-06
8.82634e-06
8.82648e-06
8.82719e-06
8.82749e-06
8.82759e-06
8.82776e-06
8.82124e-06
8.82087e-06
8.82039e-06
8.82063e-06
8.82087e-06
8.82111e-06
8.82217e-06
8.82217e-06
8.82236e-06
8.82283e-06
8.82531e-06
8.82573e-06
8.82592e-06
8.8262e-06
8.8266e-06
8.82656e-06
8.82719e-06
8.82748e-06
8.82759e-06
8.82754e-06
8.82762e-06
8.82366e-06
8.82232e-06
8.82171e-06
8.82034e-06
8.82097e-06
8.82115e-06
8.8203e-06
8.82048e-06
8.82128e-06
8.82193e-06
8.82202e-06
8.82203e-06
8.82222e-06
8.82273e-06
8.82351e-06
8.82519e-06
8.82559e-06
8.82582e-06
8.82614e-06
8.82644e-06
8.82691e-06
8.82662e-06
8.82716e-06
8.82741e-06
8.82752e-06
8.8275e-06
8.8274e-06
8.82736e-06
8.82736e-06
8.82521e-06
8.82404e-06
8.82157e-06
8.82276e-06
8.82268e-06
8.81974e-06
8.82027e-06
8.82164e-06
8.82221e-06
8.82012e-06
8.8202e-06
8.82085e-06
8.82203e-06
8.82318e-06
8.8219e-06
8.82193e-06
8.82212e-06
8.82259e-06
8.82339e-06
8.82437e-06
8.82506e-06
8.82546e-06
8.82569e-06
8.82602e-06
8.82637e-06
8.82674e-06
8.82721e-06
8.82665e-06
8.82713e-06
8.82731e-06
8.8274e-06
8.8274e-06
8.82733e-06
8.82715e-06
8.82708e-06
8.83259e-06
8.82928e-06
8.82802e-06
8.82406e-06
8.82559e-06
8.82591e-06
8.82064e-06
8.82165e-06
8.82364e-06
8.82406e-06
8.81945e-06
8.81969e-06
8.82082e-06
8.82258e-06
8.82387e-06
8.82e-06
8.82008e-06
8.8206e-06
8.82159e-06
8.82321e-06
8.82478e-06
8.82177e-06
8.82182e-06
8.82204e-06
8.8225e-06
8.82324e-06
8.82423e-06
8.82525e-06
8.8249e-06
8.82529e-06
8.82555e-06
8.82589e-06
8.82624e-06
8.82665e-06
8.82703e-06
8.82744e-06
8.82653e-06
8.82707e-06
8.82719e-06
8.82724e-06
8.82724e-06
8.8272e-06
8.82707e-06
8.82687e-06
8.8268e-06
8.83964e-06
8.83471e-06
8.83376e-06
8.82743e-06
8.83001e-06
8.83057e-06
8.82276e-06
8.82384e-06
8.8274e-06
8.82743e-06
8.82013e-06
8.82067e-06
8.82221e-06
8.82486e-06
8.82609e-06
8.81932e-06
8.81949e-06
8.82032e-06
8.82168e-06
8.8241e-06
8.82612e-06
8.8199e-06
8.81999e-06
8.82051e-06
8.82138e-06
8.82276e-06
8.82474e-06
8.82655e-06
8.82164e-06
8.82171e-06
8.82196e-06
8.82243e-06
8.82315e-06
8.82406e-06
8.82509e-06
8.82608e-06
8.82479e-06
8.82512e-06
8.82538e-06
8.82574e-06
8.82611e-06
8.82652e-06
8.82693e-06
8.82726e-06
8.82761e-06
8.82631e-06
8.82692e-06
8.82706e-06
8.82706e-06
8.82705e-06
8.82702e-06
8.82692e-06
8.82678e-06
8.82658e-06
8.82654e-06
8.84888e-06
8.84169e-06
8.84162e-06
8.83167e-06
8.83599e-06
8.83711e-06
8.82575e-06
8.82726e-06
8.83247e-06
8.83256e-06
8.82192e-06
8.82233e-06
8.82504e-06
8.82872e-06
8.82998e-06
8.81998e-06
8.82032e-06
8.82132e-06
8.82318e-06
8.82671e-06
8.82904e-06
8.81922e-06
8.8194e-06
8.82018e-06
8.82126e-06
8.82314e-06
8.82622e-06
8.82891e-06
8.81983e-06
8.81991e-06
8.82043e-06
8.8213e-06
8.82258e-06
8.82428e-06
8.82645e-06
8.82825e-06
8.82149e-06
8.82159e-06
8.82186e-06
8.82235e-06
8.82307e-06
8.82395e-06
8.8249e-06
8.82591e-06
8.82672e-06
8.8248e-06
8.82495e-06
8.8252e-06
8.82555e-06
8.82595e-06
8.82637e-06
8.82678e-06
8.82715e-06
8.82743e-06
8.82773e-06
8.82621e-06
8.82668e-06
8.82687e-06
8.82687e-06
8.82684e-06
8.8268e-06
8.82673e-06
8.82662e-06
8.82648e-06
8.82633e-06
8.82627e-06
8.8606e-06
8.85057e-06
8.8521e-06
8.8368e-06
8.84388e-06
8.84609e-06
8.82958e-06
8.83178e-06
8.83929e-06
8.84003e-06
8.82454e-06
8.82513e-06
8.82884e-06
8.83428e-06
8.83563e-06
8.8217e-06
8.8217e-06
8.82355e-06
8.82584e-06
8.83102e-06
8.83357e-06
8.81994e-06
8.82028e-06
8.82111e-06
8.82239e-06
8.82483e-06
8.82946e-06
8.83301e-06
8.81915e-06
8.81933e-06
8.82012e-06
8.82116e-06
8.82278e-06
8.8252e-06
8.8289e-06
8.83169e-06
8.81973e-06
8.81985e-06
8.82036e-06
8.82121e-06
8.82249e-06
8.8241e-06
8.82597e-06
8.82811e-06
8.82966e-06
8.82144e-06
8.82146e-06
8.82176e-06
8.82225e-06
8.82298e-06
8.82385e-06
8.82477e-06
8.8257e-06
8.82655e-06
8.82718e-06
8.82477e-06
8.82487e-06
8.82502e-06
8.82535e-06
8.82576e-06
8.82619e-06
8.82662e-06
8.82699e-06
8.82731e-06
8.82755e-06
8.82779e-06
8.82619e-06
8.8265e-06
8.82662e-06
8.82664e-06
8.8266e-06
8.82656e-06
8.82649e-06
8.82641e-06
8.82632e-06
8.82623e-06
8.8261e-06
8.82604e-06
8.8754e-06
8.86158e-06
8.86553e-06
8.84283e-06
8.85414e-06
8.85802e-06
8.83426e-06
8.83748e-06
8.84837e-06
8.85029e-06
8.8281e-06
8.82901e-06
8.83391e-06
8.84207e-06
8.84384e-06
8.8242e-06
8.82425e-06
8.82673e-06
8.82977e-06
8.83701e-06
8.83984e-06
8.82174e-06
8.82168e-06
8.82318e-06
8.82449e-06
8.8277e-06
8.8343e-06
8.83883e-06
8.8199e-06
8.82029e-06
8.8211e-06
8.82228e-06
8.82416e-06
8.82742e-06
8.83324e-06
8.8375e-06
8.8191e-06
8.81928e-06
8.82005e-06
8.82109e-06
8.82269e-06
8.82485e-06
8.82782e-06
8.83158e-06
8.83439e-06
8.81964e-06
8.81978e-06
8.8203e-06
8.82112e-06
8.82237e-06
8.82397e-06
8.82577e-06
8.82762e-06
8.82952e-06
8.8306e-06
8.82147e-06
8.82137e-06
8.82164e-06
8.82215e-06
8.82287e-06
8.82372e-06
8.82465e-06
8.82555e-06
8.82634e-06
8.82702e-06
8.8275e-06
8.82459e-06
8.82478e-06
8.8249e-06
8.82516e-06
8.82556e-06
8.82599e-06
8.82643e-06
8.82682e-06
8.82714e-06
8.82742e-06
8.82762e-06
8.82784e-06
8.82618e-06
8.82641e-06
8.8264e-06
8.82636e-06
8.82634e-06
8.82629e-06
8.82623e-06
8.82617e-06
8.82612e-06
8.82607e-06
8.82599e-06
8.82588e-06
8.82587e-06
8.89385e-06
8.87502e-06
8.88288e-06
8.84995e-06
8.86666e-06
8.87341e-06
8.83964e-06
8.84441e-06
8.85994e-06
8.86369e-06
8.83251e-06
8.83388e-06
8.8404e-06
8.85244e-06
8.85492e-06
8.82763e-06
8.82806e-06
8.83106e-06
8.83539e-06
8.84545e-06
8.84894e-06
8.82424e-06
8.82417e-06
8.82618e-06
8.82783e-06
8.83177e-06
8.8408e-06
8.8463e-06
8.8218e-06
8.8218e-06
8.82318e-06
8.82426e-06
8.82655e-06
8.83065e-06
8.83923e-06
8.84557e-06
8.81986e-06
8.82027e-06
8.8211e-06
8.82227e-06
8.82408e-06
8.82682e-06
8.83105e-06
8.83756e-06
8.8422e-06
8.81907e-06
8.81925e-06
8.81999e-06
8.82102e-06
8.82259e-06
8.82472e-06
8.82745e-06
8.83046e-06
8.83426e-06
8.83611e-06
8.81969e-06
8.81972e-06
8.82024e-06
8.82105e-06
8.82226e-06
8.82382e-06
8.8256e-06
8.82739e-06
8.82902e-06
8.83047e-06
8.83119e-06
8.82135e-06
8.82134e-06
8.82156e-06
8.82203e-06
8.82275e-06
8.82359e-06
8.8245e-06
8.82539e-06
8.82616e-06
8.82679e-06
8.82734e-06
8.82773e-06
8.82435e-06
8.82453e-06
8.82476e-06
8.82499e-06
8.82535e-06
8.82577e-06
8.82622e-06
8.82661e-06
8.82696e-06
8.82725e-06
8.82749e-06
8.82767e-06
8.82787e-06
8.82615e-06
8.82631e-06
8.82625e-06
8.82612e-06
8.82605e-06
8.82601e-06
8.82596e-06
8.8259e-06
8.82587e-06
8.82586e-06
8.82583e-06
8.82577e-06
8.82571e-06
8.82574e-06
8.91598e-06
8.89144e-06
8.90464e-06
8.85823e-06
8.882e-06
8.89356e-06
8.84579e-06
8.85236e-06
8.87376e-06
8.88131e-06
8.83749e-06
8.83955e-06
8.84822e-06
8.86504e-06
8.86962e-06
8.83198e-06
8.83287e-06
8.83641e-06
8.84255e-06
8.8565e-06
8.8611e-06
8.82756e-06
8.8279e-06
8.83043e-06
8.83268e-06
8.83759e-06
8.85009e-06
8.85669e-06
8.82438e-06
8.82425e-06
8.82606e-06
8.82745e-06
8.8302e-06
8.83498e-06
8.84678e-06
8.85535e-06
8.82179e-06
8.82188e-06
8.82325e-06
8.8243e-06
8.82638e-06
8.82966e-06
8.83532e-06
8.84572e-06
8.85277e-06
8.81983e-06
8.8202e-06
8.82108e-06
8.82225e-06
8.82404e-06
8.82672e-06
8.83048e-06
8.83524e-06
8.84219e-06
8.84555e-06
8.8191e-06
8.81925e-06
8.81997e-06
8.82096e-06
8.8225e-06
8.82457e-06
8.82722e-06
8.83008e-06
8.83311e-06
8.836e-06
8.83712e-06
8.81969e-06
8.81974e-06
8.8202e-06
8.82098e-06
8.82215e-06
8.82367e-06
8.8254e-06
8.82716e-06
8.82876e-06
8.82997e-06
8.83108e-06
8.83156e-06
8.82113e-06
8.82118e-06
8.82149e-06
8.82193e-06
8.82261e-06
8.82344e-06
8.82434e-06
8.82521e-06
8.82598e-06
8.8266e-06
8.8271e-06
8.82758e-06
8.8279e-06
8.82405e-06
8.82425e-06
8.82449e-06
8.82479e-06
8.82514e-06
8.82554e-06
8.82598e-06
8.82638e-06
8.82674e-06
8.82706e-06
8.82732e-06
8.82754e-06
8.8277e-06
8.82789e-06
8.82612e-06
8.82618e-06
8.82608e-06
8.82592e-06
8.8258e-06
8.82572e-06
8.82566e-06
8.82562e-06
8.8256e-06
8.82561e-06
8.82562e-06
8.82561e-06
8.8256e-06
8.82558e-06
8.82563e-06
8.94186e-06
8.91066e-06
8.93081e-06
8.86816e-06
8.90089e-06
8.91848e-06
8.85275e-06
8.8613e-06
8.89092e-06
8.90401e-06
8.84295e-06
8.84584e-06
8.85714e-06
8.88016e-06
8.88903e-06
8.8369e-06
8.83819e-06
8.84243e-06
8.85077e-06
8.87023e-06
8.87698e-06
8.8317e-06
8.83266e-06
8.83569e-06
8.8385e-06
8.84479e-06
8.86223e-06
8.86997e-06
8.82766e-06
8.82773e-06
8.83003e-06
8.8322e-06
8.8353e-06
8.84118e-06
8.85726e-06
8.86809e-06
8.82446e-06
8.82436e-06
8.82612e-06
8.8273e-06
8.82983e-06
8.83375e-06
8.84053e-06
8.85539e-06
8.86578e-06
8.82174e-06
8.8219e-06
8.82327e-06
8.82434e-06
8.82636e-06
8.82947e-06
8.83439e-06
8.84162e-06
8.8527e-06
8.85939e-06
8.81985e-06
8.82015e-06
8.82107e-06
8.82223e-06
8.82399e-06
8.82662e-06
8.8303e-06
8.83465e-06
8.83984e-06
8.84557e-06
8.8476e-06
8.81914e-06
8.81928e-06
8.81996e-06
8.82093e-06
8.82242e-06
8.82443e-06
8.82698e-06
8.8298e-06
8.83266e-06
8.83484e-06
8.83709e-06
8.83745e-06
8.8196e-06
8.8197e-06
8.8202e-06
8.82093e-06
8.82206e-06
8.82353e-06
8.82519e-06
8.82691e-06
8.82848e-06
8.82968e-06
8.83058e-06
8.83146e-06
8.83179e-06
8.82086e-06
8.82096e-06
8.82131e-06
8.82181e-06
8.82247e-06
8.8233e-06
8.82416e-06
8.825e-06
8.82576e-06
8.82639e-06
8.8269e-06
8.82733e-06
8.82775e-06
8.82803e-06
8.8237e-06
8.82392e-06
8.8242e-06
8.82449e-06
8.8249e-06
8.82531e-06
8.82573e-06
8.82613e-06
8.8265e-06
8.82683e-06
8.82712e-06
8.82736e-06
8.82757e-06
8.82773e-06
8.82791e-06
8.82613e-06
8.82604e-06
8.82589e-06
8.82571e-06
8.82556e-06
8.82545e-06
8.82537e-06
8.82532e-06
8.82531e-06
8.82534e-06
8.82537e-06
8.8254e-06
8.82544e-06
8.82547e-06
8.82548e-06
8.82553e-06
8.97085e-06
8.93284e-06
8.96072e-06
8.88049e-06
8.9229e-06
8.9475e-06
8.86085e-06
8.87287e-06
8.91163e-06
8.93088e-06
8.84887e-06
8.85289e-06
8.86744e-06
8.89951e-06
8.91297e-06
8.84215e-06
8.84351e-06
8.84895e-06
8.86054e-06
8.88698e-06
8.89758e-06
8.83628e-06
8.83794e-06
8.84138e-06
8.8443e-06
8.85344e-06
8.87697e-06
8.88682e-06
8.83165e-06
8.83209e-06
8.83497e-06
8.83794e-06
8.84093e-06
8.84861e-06
8.87045e-06
8.88331e-06
8.82778e-06
8.82771e-06
8.82981e-06
8.83163e-06
8.83475e-06
8.83933e-06
8.84744e-06
8.86803e-06
8.8824e-06
8.82443e-06
8.82441e-06
8.82619e-06
8.8273e-06
8.82961e-06
8.83328e-06
8.83947e-06
8.8488e-06
8.86543e-06
8.87737e-06
8.82171e-06
8.82188e-06
8.82326e-06
8.82435e-06
8.82634e-06
8.82937e-06
8.8341e-06
8.84067e-06
8.84855e-06
8.8594e-06
8.86361e-06
8.8199e-06
8.82016e-06
8.82107e-06
8.8222e-06
8.82394e-06
8.82651e-06
8.83011e-06
8.83437e-06
8.8392e-06
8.8432e-06
8.84799e-06
8.84729e-06
8.81917e-06
8.81931e-06
8.81997e-06
8.82091e-06
8.82237e-06
8.82431e-06
8.82676e-06
8.8295e-06
8.83227e-06
8.83437e-06
8.83594e-06
8.83749e-06
8.83743e-06
8.81947e-06
8.81962e-06
8.82015e-06
8.82087e-06
8.82198e-06
8.82339e-06
8.82499e-06
8.82666e-06
8.82817e-06
8.82936e-06
8.83027e-06
8.83096e-06
8.8317e-06
8.83196e-06
8.82053e-06
8.82071e-06
8.82111e-06
8.82161e-06
8.8223e-06
8.82313e-06
8.82397e-06
8.82479e-06
8.82552e-06
8.82614e-06
8.82667e-06
8.82712e-06
8.8275e-06
8.82788e-06
8.82813e-06
8.82321e-06
8.82353e-06
8.82385e-06
8.82419e-06
8.82459e-06
8.82502e-06
8.82546e-06
8.82586e-06
8.82623e-06
8.82657e-06
8.82688e-06
8.82716e-06
8.82739e-06
8.82759e-06
8.82774e-06
8.82792e-06
8.82629e-06
8.82594e-06
8.82568e-06
8.82547e-06
8.82531e-06
8.82519e-06
8.8251e-06
8.82503e-06
8.82501e-06
8.82505e-06
8.8251e-06
8.82515e-06
8.82524e-06
8.82531e-06
8.82537e-06
8.82538e-06
8.82545e-06
9.00251e-06
8.95775e-06
8.9939e-06
8.89537e-06
8.94805e-06
8.98013e-06
8.87028e-06
8.88769e-06
8.93598e-06
8.96141e-06
8.85586e-06
8.86161e-06
8.88074e-06
8.92185e-06
8.94107e-06
8.84774e-06
8.84889e-06
8.85672e-06
8.87256e-06
8.90671e-06
8.92247e-06
8.84103e-06
8.84327e-06
8.84705e-06
8.85089e-06
8.86421e-06
8.89456e-06
8.90826e-06
8.83598e-06
8.83675e-06
8.84031e-06
8.84364e-06
8.84661e-06
8.85745e-06
8.88619e-06
8.90154e-06
8.83179e-06
8.8318e-06
8.83421e-06
8.83679e-06
8.84032e-06
8.84523e-06
8.85501e-06
8.88309e-06
8.90143e-06
8.82777e-06
8.82773e-06
8.82979e-06
8.83132e-06
8.83402e-06
8.83851e-06
8.84578e-06
8.85737e-06
8.8818e-06
8.89974e-06
8.82438e-06
8.8244e-06
8.8262e-06
8.82729e-06
8.82953e-06
8.83298e-06
8.83883e-06
8.84774e-06
8.85857e-06
8.87713e-06
8.88537e-06
8.82173e-06
8.82191e-06
8.82322e-06
8.82432e-06
8.8263e-06
8.82926e-06
8.83386e-06
8.84018e-06
8.84759e-06
8.85522e-06
8.86423e-06
8.86375e-06
8.81996e-06
8.82022e-06
8.82108e-06
8.82217e-06
8.82389e-06
8.8264e-06
8.82991e-06
8.83406e-06
8.83873e-06
8.84254e-06
8.84569e-06
8.84794e-06
8.84685e-06
8.81916e-06
8.81935e-06
8.81999e-06
8.8209e-06
8.82231e-06
8.82421e-06
8.82657e-06
8.82919e-06
8.83187e-06
8.83389e-06
8.83547e-06
8.8364e-06
8.83748e-06
8.83735e-06
8.81927e-06
8.81952e-06
8.82007e-06
8.82079e-06
8.82186e-06
8.82323e-06
8.82478e-06
8.8264e-06
8.82784e-06
8.82899e-06
8.82991e-06
8.83063e-06
8.8312e-06
8.83186e-06
8.83209e-06
8.82009e-06
8.82039e-06
8.82088e-06
8.82141e-06
8.82209e-06
8.82292e-06
8.82375e-06
8.82455e-06
8.82526e-06
8.82587e-06
8.8264e-06
8.82687e-06
8.82728e-06
8.82762e-06
8.82798e-06
8.8282e-06
8.82251e-06
8.82306e-06
8.82346e-06
8.82385e-06
8.82427e-06
8.8247e-06
8.82514e-06
8.82556e-06
8.82594e-06
8.82629e-06
8.82662e-06
8.82692e-06
8.82718e-06
8.82741e-06
8.82761e-06
8.82776e-06
8.82794e-06
8.82642e-06
8.82597e-06
8.8255e-06
8.82522e-06
8.82504e-06
8.82492e-06
8.82483e-06
8.82476e-06
8.82473e-06
8.82475e-06
8.82481e-06
8.82489e-06
8.82499e-06
8.82511e-06
8.82521e-06
8.82528e-06
8.8253e-06
8.82536e-06
9.03679e-06
8.98475e-06
9.03055e-06
8.91201e-06
8.97587e-06
9.01666e-06
8.88105e-06
8.90465e-06
8.96312e-06
8.9962e-06
8.86376e-06
8.87253e-06
8.89717e-06
8.94647e-06
8.97369e-06
8.85419e-06
8.85615e-06
8.86652e-06
8.88824e-06
8.92918e-06
8.952e-06
8.84613e-06
8.8489e-06
8.85323e-06
8.85967e-06
8.87785e-06
8.91479e-06
8.93407e-06
8.84052e-06
8.8413e-06
8.84577e-06
8.84964e-06
8.8534e-06
8.869e-06
8.90465e-06
8.92413e-06
8.83623e-06
8.83613e-06
8.83866e-06
8.84185e-06
8.84612e-06
8.85095e-06
8.86396e-06
8.90034e-06
8.92276e-06
8.83184e-06
8.83179e-06
8.83402e-06
8.83592e-06
8.83884e-06
8.84421e-06
8.85196e-06
8.86589e-06
8.9007e-06
8.92356e-06
8.82767e-06
8.82768e-06
8.82975e-06
8.8312e-06
8.83363e-06
8.83764e-06
8.84463e-06
8.85561e-06
8.8705e-06
8.89889e-06
8.91413e-06
8.82438e-06
8.8244e-06
8.82614e-06
8.82722e-06
8.82945e-06
8.83277e-06
8.83836e-06
8.84685e-06
8.85739e-06
8.87026e-06
8.88583e-06
8.88822e-06
8.8218e-06
8.82198e-06
8.82319e-06
8.82427e-06
8.82623e-06
8.82914e-06
8.83361e-06
8.8397e-06
8.84695e-06
8.85423e-06
8.86015e-06
8.86496e-06
8.86179e-06
8.82002e-06
8.82029e-06
8.8211e-06
8.82216e-06
8.82383e-06
8.82628e-06
8.82969e-06
8.83374e-06
8.83824e-06
8.842e-06
8.84506e-06
8.84587e-06
8.84737e-06
8.84598e-06
8.8191e-06
8.81937e-06
8.82003e-06
8.82091e-06
8.82227e-06
8.8241e-06
8.82641e-06
8.82888e-06
8.83147e-06
8.83339e-06
8.83496e-06
8.83592e-06
8.8364e-06
8.83739e-06
8.8373e-06
8.81901e-06
8.81934e-06
8.81998e-06
8.8207e-06
8.82174e-06
8.82305e-06
8.82457e-06
8.82611e-06
8.8275e-06
8.82861e-06
8.82952e-06
8.83025e-06
8.83086e-06
8.83136e-06
8.83199e-06
8.83219e-06
8.81961e-06
8.82005e-06
8.8206e-06
8.82117e-06
8.8219e-06
8.82269e-06
8.82351e-06
8.82428e-06
8.82498e-06
8.82558e-06
8.82611e-06
8.82659e-06
8.82702e-06
8.8274e-06
8.82772e-06
8.82806e-06
8.82827e-06
8.82206e-06
8.82241e-06
8.82301e-06
8.82348e-06
8.82392e-06
8.82436e-06
8.82481e-06
8.82522e-06
8.82561e-06
8.82599e-06
8.82633e-06
8.82664e-06
8.82694e-06
8.8272e-06
8.82742e-06
8.82762e-06
8.82777e-06
8.82795e-06
8.82633e-06
8.82595e-06
8.82541e-06
8.82498e-06
8.82475e-06
8.82462e-06
8.82454e-06
8.82448e-06
8.82445e-06
8.82447e-06
8.82453e-06
8.82461e-06
8.82473e-06
8.82487e-06
8.825e-06
8.82512e-06
8.8252e-06
8.82522e-06
8.82531e-06
9.07367e-06
9.0136e-06
9.07094e-06
8.92959e-06
9.00626e-06
9.05758e-06
8.89289e-06
8.92277e-06
8.99322e-06
9.03588e-06
8.87221e-06
8.88461e-06
8.91506e-06
8.97452e-06
9.01119e-06
8.86147e-06
8.86453e-06
8.87793e-06
8.90514e-06
8.95519e-06
8.98633e-06
8.85215e-06
8.85587e-06
8.86088e-06
8.8696e-06
8.89393e-06
8.93817e-06
8.96478e-06
8.84531e-06
8.84629e-06
8.85207e-06
8.8568e-06
8.86177e-06
8.8835e-06
8.92542e-06
8.95087e-06
8.84106e-06
8.84024e-06
8.843e-06
8.84758e-06
8.85235e-06
8.85767e-06
8.87603e-06
8.91988e-06
8.94754e-06
8.83652e-06
8.83623e-06
8.83831e-06
8.83978e-06
8.84374e-06
8.84996e-06
8.85788e-06
8.87537e-06
8.9209e-06
8.94934e-06
8.83174e-06
8.83176e-06
8.83404e-06
8.83572e-06
8.83787e-06
8.84243e-06
8.85041e-06
8.86286e-06
8.88214e-06
8.92211e-06
8.94594e-06
8.82758e-06
8.82761e-06
8.82963e-06
8.83103e-06
8.83341e-06
8.83712e-06
8.84357e-06
8.85407e-06
8.86853e-06
8.88703e-06
8.91376e-06
8.92254e-06
8.82445e-06
8.82448e-06
8.82608e-06
8.82711e-06
8.82934e-06
8.83259e-06
8.83797e-06
8.84612e-06
8.85622e-06
8.86892e-06
8.87901e-06
8.89007e-06
8.88457e-06
8.82189e-06
8.8221e-06
8.82318e-06
8.82421e-06
8.82614e-06
8.82901e-06
8.83336e-06
8.8392e-06
8.84631e-06
8.85342e-06
8.85917e-06
8.86135e-06
8.86324e-06
8.85941e-06
8.82006e-06
8.82039e-06
8.82114e-06
8.82216e-06
8.82378e-06
8.82615e-06
8.82944e-06
8.83341e-06
8.83774e-06
8.84141e-06
8.84444e-06
8.84532e-06
8.84536e-06
8.84664e-06
8.84519e-06
8.81903e-06
8.81936e-06
8.82006e-06
8.82093e-06
8.82224e-06
8.82401e-06
8.82622e-06
8.82858e-06
8.83105e-06
8.83288e-06
8.83443e-06
8.83537e-06
8.83591e-06
8.83633e-06
8.83733e-06
8.83726e-06
8.81883e-06
8.81914e-06
8.8198e-06
8.8206e-06
8.82163e-06
8.82287e-06
8.82434e-06
8.82582e-06
8.82713e-06
8.8282e-06
8.82909e-06
8.82982e-06
8.83046e-06
8.83101e-06
8.83149e-06
8.83209e-06
8.83229e-06
8.81949e-06
8.81966e-06
8.8203e-06
8.8209e-06
8.82167e-06
8.82246e-06
8.82326e-06
8.824e-06
8.82467e-06
8.82526e-06
8.82579e-06
8.82627e-06
8.82672e-06
8.82713e-06
8.82749e-06
8.8278e-06
8.82813e-06
8.82833e-06
8.82177e-06
8.82206e-06
8.82246e-06
8.82305e-06
8.82355e-06
8.82401e-06
8.82446e-06
8.82488e-06
8.82526e-06
8.82565e-06
8.82601e-06
8.82635e-06
8.82666e-06
8.82695e-06
8.82721e-06
8.82744e-06
8.82763e-06
8.82779e-06
8.82797e-06
8.82616e-06
8.82569e-06
8.82527e-06
8.8248e-06
8.82447e-06
8.82433e-06
8.82423e-06
8.82418e-06
8.82417e-06
8.82419e-06
8.82426e-06
8.82434e-06
8.82446e-06
8.82461e-06
8.82477e-06
8.82492e-06
8.82504e-06
8.82512e-06
8.82517e-06
8.8252e-06
9.11311e-06
9.04401e-06
9.11533e-06
8.94765e-06
9.03919e-06
9.10336e-06
8.90504e-06
8.94147e-06
9.02665e-06
9.08106e-06
8.88054e-06
8.89692e-06
8.93345e-06
9.0068e-06
9.05407e-06
8.86914e-06
8.8726e-06
8.88931e-06
8.92253e-06
8.98567e-06
9.02574e-06
8.85921e-06
8.86345e-06
8.86783e-06
8.87937e-06
8.91115e-06
8.96565e-06
9.00046e-06
8.85081e-06
8.85298e-06
8.85951e-06
8.8629e-06
8.87038e-06
8.90025e-06
8.94977e-06
8.98271e-06
8.84607e-06
8.8443e-06
8.84845e-06
8.85484e-06
8.85832e-06
8.86481e-06
8.89107e-06
8.9415e-06
8.9763e-06
8.8418e-06
8.8406e-06
8.84216e-06
8.8441e-06
8.84961e-06
8.85579e-06
8.86394e-06
8.88798e-06
8.94265e-06
8.97804e-06
8.83659e-06
8.83642e-06
8.8386e-06
8.83952e-06
8.84135e-06
8.84707e-06
8.85603e-06
8.86947e-06
8.89349e-06
8.94683e-06
8.98033e-06
8.83155e-06
8.83165e-06
8.83401e-06
8.83561e-06
8.83757e-06
8.84134e-06
8.84837e-06
8.86069e-06
8.87902e-06
8.90229e-06
8.94528e-06
8.96183e-06
8.82756e-06
8.82755e-06
8.82947e-06
8.83082e-06
8.83318e-06
8.83673e-06
8.84283e-06
8.85269e-06
8.86663e-06
8.88463e-06
8.90173e-06
8.92422e-06
8.91829e-06
8.82457e-06
8.82463e-06
8.82602e-06
8.827e-06
8.8292e-06
8.83239e-06
8.83761e-06
8.84546e-06
8.85524e-06
8.86753e-06
8.87773e-06
8.88389e-06
8.88712e-06
8.88003e-06
8.822e-06
8.82228e-06
8.82319e-06
8.82418e-06
8.82604e-06
8.82884e-06
8.8331e-06
8.83873e-06
8.84564e-06
8.85256e-06
8.85821e-06
8.8606e-06
8.8598e-06
8.86113e-06
8.85671e-06
8.82009e-06
8.82045e-06
8.82119e-06
8.82216e-06
8.82374e-06
8.82604e-06
8.82919e-06
8.83304e-06
8.83722e-06
8.84078e-06
8.84375e-06
8.84469e-06
8.84486e-06
8.8447e-06
8.84583e-06
8.84453e-06
8.81901e-06
8.81934e-06
8.82006e-06
8.82095e-06
8.82224e-06
8.82394e-06
8.82604e-06
8.8283e-06
8.83063e-06
8.83235e-06
8.83386e-06
8.83476e-06
8.83532e-06
8.83586e-06
8.83629e-06
8.83727e-06
8.83724e-06
8.8188e-06
8.81904e-06
8.81967e-06
8.82041e-06
8.82147e-06
8.82271e-06
8.82412e-06
8.8255e-06
8.82675e-06
8.82777e-06
8.82863e-06
8.82935e-06
8.83e-06
8.8306e-06
8.83113e-06
8.83159e-06
8.83218e-06
8.83237e-06
8.81965e-06
8.81972e-06
8.82002e-06
8.82064e-06
8.82142e-06
8.82223e-06
8.82299e-06
8.82372e-06
8.82435e-06
8.82492e-06
8.82544e-06
8.82593e-06
8.82639e-06
8.82682e-06
8.82722e-06
8.82757e-06
8.82786e-06
8.82818e-06
8.82838e-06
8.82156e-06
8.82178e-06
8.82214e-06
8.82259e-06
8.82314e-06
8.82364e-06
8.8241e-06
8.82451e-06
8.82491e-06
8.82529e-06
8.82566e-06
8.82602e-06
8.82636e-06
8.82668e-06
8.82697e-06
8.82723e-06
8.82745e-06
8.82765e-06
8.82781e-06
8.828e-06
8.82599e-06
8.82539e-06
8.82493e-06
8.82457e-06
8.82423e-06
8.82401e-06
8.82393e-06
8.82388e-06
8.82387e-06
8.82391e-06
8.82398e-06
8.82407e-06
8.82419e-06
8.82434e-06
8.82451e-06
8.82468e-06
8.82484e-06
8.82499e-06
8.82504e-06
8.82507e-06
8.82507e-06
9.15505e-06
9.07564e-06
9.16403e-06
8.96594e-06
9.07448e-06
9.15469e-06
8.91695e-06
8.96065e-06
9.06332e-06
9.13245e-06
8.88802e-06
8.90875e-06
8.95231e-06
9.04331e-06
9.10316e-06
8.87624e-06
8.87925e-06
8.90004e-06
8.94048e-06
9.02076e-06
9.07095e-06
8.86665e-06
8.87022e-06
8.87278e-06
8.88892e-06
8.92872e-06
8.99781e-06
9.04136e-06
8.85733e-06
8.86064e-06
8.86564e-06
8.86681e-06
8.879e-06
8.91757e-06
8.97844e-06
9.01957e-06
8.85137e-06
8.84981e-06
8.85578e-06
8.86074e-06
8.86236e-06
8.87185e-06
8.90815e-06
8.96692e-06
9.00979e-06
8.84725e-06
8.84465e-06
8.8463e-06
8.8508e-06
8.85561e-06
8.86038e-06
8.86959e-06
8.9034e-06
8.96619e-06
9.01016e-06
8.84232e-06
8.84126e-06
8.84276e-06
8.84311e-06
8.84603e-06
8.85254e-06
8.86101e-06
8.87493e-06
8.90729e-06
8.97262e-06
9.01669e-06
8.83647e-06
8.83655e-06
8.83893e-06
8.83985e-06
8.84102e-06
8.84445e-06
8.85289e-06
8.86658e-06
8.88752e-06
8.91681e-06
8.97826e-06
9.00585e-06
8.83135e-06
8.83152e-06
8.83392e-06
8.83551e-06
8.83744e-06
8.84083e-06
8.84707e-06
8.85833e-06
8.87623e-06
8.89874e-06
8.9249e-06
8.96335e-06
8.96548e-06
8.82762e-06
8.82756e-06
8.8293e-06
8.83058e-06
8.83295e-06
8.83636e-06
8.84218e-06
8.85158e-06
8.86488e-06
8.88236e-06
8.89935e-06
8.91265e-06
8.92281e-06
8.91338e-06
8.82473e-06
8.82483e-06
8.82596e-06
8.8269e-06
8.82907e-06
8.83218e-06
8.83726e-06
8.84481e-06
8.8543e-06
8.86624e-06
8.87624e-06
8.88298e-06
8.88135e-06
8.88348e-06
8.87411e-06
8.82212e-06
8.82244e-06
8.82324e-06
8.82419e-06
8.82596e-06
8.82867e-06
8.83279e-06
8.8383e-06
8.84492e-06
8.85164e-06
8.85719e-06
8.85979e-06
8.85921e-06
8.85786e-06
8.85856e-06
8.85437e-06
8.82012e-06
8.82055e-06
8.82125e-06
8.82219e-06
8.82369e-06
8.82592e-06
8.829e-06
8.83266e-06
8.83663e-06
8.84013e-06
8.84301e-06
8.84394e-06
8.84422e-06
8.84421e-06
8.84393e-06
8.84513e-06
8.84401e-06
8.81922e-06
8.8195e-06
8.82011e-06
8.82094e-06
8.82222e-06
8.8239e-06
8.82584e-06
8.82803e-06
8.83021e-06
8.83184e-06
8.83327e-06
8.8341e-06
8.83468e-06
8.83528e-06
8.8358e-06
8.83624e-06
8.83723e-06
8.83721e-06
8.81924e-06
8.81923e-06
8.81959e-06
8.82028e-06
8.8213e-06
8.82252e-06
8.82388e-06
8.82521e-06
8.82635e-06
8.82732e-06
8.82815e-06
8.82885e-06
8.82951e-06
8.83013e-06
8.83071e-06
8.83122e-06
8.83167e-06
8.83226e-06
8.83245e-06
8.8197e-06
8.81983e-06
8.82004e-06
8.82041e-06
8.82118e-06
8.82195e-06
8.82275e-06
8.82341e-06
8.82403e-06
8.82458e-06
8.82508e-06
8.82557e-06
8.82604e-06
8.82649e-06
8.82691e-06
8.82729e-06
8.82763e-06
8.82792e-06
8.82824e-06
8.82844e-06
8.82137e-06
8.82155e-06
8.82187e-06
8.82227e-06
8.82274e-06
8.82324e-06
8.82371e-06
8.82414e-06
8.82453e-06
8.82492e-06
8.8253e-06
8.82567e-06
8.82603e-06
8.82637e-06
8.82669e-06
8.82698e-06
8.82724e-06
8.82747e-06
8.82767e-06
8.82784e-06
8.82803e-06
8.82586e-06
8.82513e-06
8.82459e-06
8.82422e-06
8.82394e-06
8.82374e-06
8.8236e-06
8.82357e-06
8.82357e-06
8.82362e-06
8.82371e-06
8.8238e-06
8.82393e-06
8.82408e-06
8.82425e-06
8.82443e-06
8.82461e-06
8.8248e-06
8.82489e-06
8.82495e-06
8.82494e-06
8.82494e-06
9.19937e-06
9.10811e-06
9.21736e-06
8.98429e-06
9.11175e-06
9.21238e-06
8.92836e-06
8.98029e-06
9.10282e-06
9.191e-06
8.89444e-06
8.91997e-06
8.97193e-06
9.08323e-06
9.15956e-06
8.88189e-06
8.88434e-06
8.91023e-06
8.95931e-06
9.05974e-06
9.12312e-06
8.87356e-06
8.87506e-06
8.87588e-06
8.89824e-06
8.94653e-06
9.03433e-06
9.08854e-06
8.86437e-06
8.86745e-06
8.86926e-06
8.86888e-06
8.88755e-06
8.93447e-06
9.01179e-06
9.06162e-06
8.85738e-06
8.8569e-06
8.86218e-06
8.864e-06
8.86416e-06
8.87911e-06
8.92509e-06
8.99655e-06
9.04792e-06
8.85279e-06
8.84918e-06
8.85226e-06
8.85692e-06
8.85954e-06
8.86236e-06
8.87519e-06
8.92049e-06
8.99317e-06
9.04645e-06
8.84832e-06
8.8457e-06
8.84663e-06
8.84829e-06
8.85191e-06
8.8572e-06
8.8641e-06
8.87945e-06
8.92368e-06
8.99937e-06
9.05529e-06
8.84261e-06
8.84194e-06
8.8436e-06
8.84353e-06
8.84467e-06
8.84935e-06
8.8576e-06
8.87086e-06
8.89345e-06
8.93373e-06
9.01121e-06
9.05217e-06
8.83621e-06
8.8366e-06
8.83924e-06
8.84031e-06
8.84122e-06
8.8439e-06
8.85024e-06
8.86317e-06
8.88362e-06
8.91056e-06
8.94684e-06
9.00506e-06
9.01945e-06
8.83123e-06
8.83137e-06
8.83375e-06
8.83543e-06
8.83746e-06
8.84052e-06
8.84623e-06
8.85656e-06
8.8735e-06
8.89521e-06
8.92123e-06
8.94292e-06
8.9708e-06
8.95687e-06
8.82778e-06
8.82771e-06
8.82914e-06
8.83031e-06
8.83269e-06
8.83602e-06
8.84158e-06
8.85056e-06
8.86331e-06
8.88024e-06
8.89707e-06
8.91073e-06
8.91297e-06
8.91847e-06
8.90343e-06
8.82492e-06
8.82505e-06
8.82599e-06
8.82687e-06
8.82893e-06
8.83197e-06
8.8369e-06
8.84416e-06
8.85337e-06
8.86489e-06
8.87483e-06
8.88173e-06
8.88077e-06
8.87809e-06
8.87814e-06
8.86862e-06
8.82222e-06
8.8227e-06
8.82331e-06
8.82424e-06
8.82593e-06
8.82853e-06
8.83247e-06
8.8378e-06
8.84414e-06
8.85068e-06
8.85608e-06
8.85878e-06
8.85844e-06
8.85736e-06
8.8554e-06
8.85625e-06
8.85246e-06
8.82032e-06
8.82068e-06
8.8214e-06
8.82225e-06
8.8237e-06
8.82581e-06
8.82876e-06
8.83224e-06
8.83604e-06
8.83941e-06
8.84221e-06
8.84307e-06
8.84347e-06
8.84357e-06
8.84345e-06
8.84327e-06
8.84457e-06
8.84362e-06
8.81955e-06
8.8197e-06
8.82022e-06
8.82106e-06
8.82225e-06
8.82382e-06
8.82565e-06
8.8278e-06
8.82979e-06
8.83134e-06
8.83266e-06
8.83339e-06
8.834e-06
8.83465e-06
8.83521e-06
8.83574e-06
8.8362e-06
8.83719e-06
8.83723e-06
8.81954e-06
8.81954e-06
8.81973e-06
8.82021e-06
8.82114e-06
8.8223e-06
8.82365e-06
8.82487e-06
8.82597e-06
8.82686e-06
8.82764e-06
8.82833e-06
8.82898e-06
8.82962e-06
8.83023e-06
8.83079e-06
8.8313e-06
8.83174e-06
8.83233e-06
8.83254e-06
8.81949e-06
8.81963e-06
8.82002e-06
8.82037e-06
8.82095e-06
8.82172e-06
8.82241e-06
8.82315e-06
8.8237e-06
8.82423e-06
8.82471e-06
8.82519e-06
8.82566e-06
8.82612e-06
8.82656e-06
8.82697e-06
8.82735e-06
8.82768e-06
8.82798e-06
8.82831e-06
8.82851e-06
8.82117e-06
8.8213e-06
8.8216e-06
8.82198e-06
8.82241e-06
8.82286e-06
8.82331e-06
8.82375e-06
8.82415e-06
8.82454e-06
8.82493e-06
8.82531e-06
8.82568e-06
8.82604e-06
8.82638e-06
8.8267e-06
8.82699e-06
8.82726e-06
8.82749e-06
8.8277e-06
8.82787e-06
8.82807e-06
8.82575e-06
8.8249e-06
8.82429e-06
8.82387e-06
8.8236e-06
8.82343e-06
8.82332e-06
8.82324e-06
8.82326e-06
8.82332e-06
8.82341e-06
8.82353e-06
8.82367e-06
8.82382e-06
8.82399e-06
8.82417e-06
8.82436e-06
8.82457e-06
8.8247e-06
8.8248e-06
8.82484e-06
8.82482e-06
8.8248e-06
9.24587e-06
9.14094e-06
9.27567e-06
9.00257e-06
9.1503e-06
9.27761e-06
8.93921e-06
9.00041e-06
9.14416e-06
9.25855e-06
8.89997e-06
8.93069e-06
8.99236e-06
9.12516e-06
9.22517e-06
8.88598e-06
8.88842e-06
8.92019e-06
8.97894e-06
9.10129e-06
9.18374e-06
8.87903e-06
8.87777e-06
8.87801e-06
8.90738e-06
8.96471e-06
9.07396e-06
9.14316e-06
8.87099e-06
8.87242e-06
8.87043e-06
8.87007e-06
8.89585e-06
8.95097e-06
9.0491e-06
9.10992e-06
8.86391e-06
8.8637e-06
8.86609e-06
8.86483e-06
8.86486e-06
8.88633e-06
8.94078e-06
9.03056e-06
9.09075e-06
8.85867e-06
8.85507e-06
8.85852e-06
8.8606e-06
8.86074e-06
8.8627e-06
8.88136e-06
8.93667e-06
9.02368e-06
9.08691e-06
8.85437e-06
8.84997e-06
8.85127e-06
8.85391e-06
8.85625e-06
8.85915e-06
8.86467e-06
8.88384e-06
8.94116e-06
9.02879e-06
9.09637e-06
8.84919e-06
8.84698e-06
8.84759e-06
8.84769e-06
8.84963e-06
8.85414e-06
8.86074e-06
8.87298e-06
8.89762e-06
8.95261e-06
9.04358e-06
9.10089e-06
8.84267e-06
8.84252e-06
8.84459e-06
8.84437e-06
8.84463e-06
8.84782e-06
8.85491e-06
8.86722e-06
8.88828e-06
8.91873e-06
8.96987e-06
9.04807e-06
9.07694e-06
8.83591e-06
8.83651e-06
8.83949e-06
8.84088e-06
8.84173e-06
8.84385e-06
8.84926e-06
8.86052e-06
8.87996e-06
8.9056e-06
8.94e-06
8.97303e-06
9.02311e-06
9.01124e-06
8.83124e-06
8.8313e-06
8.83349e-06
8.83525e-06
8.83752e-06
8.84048e-06
8.84567e-06
8.85524e-06
8.87115e-06
8.89203e-06
8.91762e-06
8.9398e-06
8.95182e-06
8.96438e-06
8.94526e-06
8.82805e-06
8.82798e-06
8.82905e-06
8.83003e-06
8.83237e-06
8.83566e-06
8.84106e-06
8.84957e-06
8.86176e-06
8.87818e-06
8.8949e-06
8.90856e-06
8.91238e-06
8.9078e-06
8.91036e-06
8.89366e-06
8.82512e-06
8.82538e-06
8.82602e-06
8.8269e-06
8.82884e-06
8.83176e-06
8.83655e-06
8.84349e-06
8.85244e-06
8.86351e-06
8.87332e-06
8.88041e-06
8.87961e-06
8.87794e-06
8.87295e-06
8.87301e-06
8.86398e-06
8.82233e-06
8.82285e-06
8.82351e-06
8.82436e-06
8.82597e-06
8.82845e-06
8.8322e-06
8.83729e-06
8.84332e-06
8.84969e-06
8.85492e-06
8.85758e-06
8.85744e-06
8.85664e-06
8.85497e-06