/*--------------------------------*- C++ -*----------------------------------*\
  =========                 |
  \\      /  F ield         | OpenFOAM: The Open Source CFD Toolbox
   \\    /   O peration     | Website:  https://openfoam.org
    \\  /    A nd           | Version:  13
     \\/     M anipulation  |
\*---------------------------------------------------------------------------*/
FoamFile
{
    format      ascii;
    class       volScalarField;
    location    "2000";
    object      nuTilda;
}
// * * * * * * * * * * * * * * * * * * * * * * * * * * * * * * * * * * * * * //

dimensions      [0 2 -1 0 0 0 0];

internalField   nonuniform List<scalar> 
294912
(
5.90132e-05
5.90119e-05
5.90135e-05
5.90137e-05
5.90083e-05
5.90119e-05
5.90105e-05
5.90141e-05
5.90136e-05
5.90132e-05
5.90061e-05
5.90083e-05
5.90066e-05
5.9012e-05
5.90104e-05
5.90089e-05
5.90146e-05
5.90139e-05
5.90129e-05
5.90123e-05
5.9006e-05
5.90065e-05
5.90047e-05
5.90081e-05
5.90066e-05
5.90051e-05
5.90118e-05
5.90104e-05
5.90088e-05
5.90077e-05
5.90148e-05
5.90141e-05
5.90131e-05
5.90121e-05
5.90113e-05
5.90078e-05
5.90071e-05
5.90051e-05
5.90059e-05
5.90051e-05
5.90037e-05
5.90079e-05
5.90064e-05
5.9005e-05
5.90041e-05
5.90116e-05
5.90102e-05
5.90087e-05
5.90075e-05
5.90066e-05
5.90149e-05
5.90141e-05
5.90132e-05
5.90121e-05
5.9011e-05
5.90102e-05
5.90118e-05
5.90098e-05
5.90078e-05
5.90061e-05
5.90062e-05
5.90048e-05
5.90054e-05
5.90044e-05
5.90041e-05
5.90032e-05
5.90076e-05
5.90062e-05
5.90048e-05
5.9004e-05
5.90034e-05
5.90114e-05
5.901e-05
5.90086e-05
5.90075e-05
5.90064e-05
5.90057e-05
5.90151e-05
5.90141e-05
5.90131e-05
5.90121e-05
5.9011e-05
5.90099e-05
5.90092e-05
5.9018e-05
5.90146e-05
5.90128e-05
5.90084e-05
5.90098e-05
5.90082e-05
5.90051e-05
5.9005e-05
5.90058e-05
5.90047e-05
5.90051e-05
5.9004e-05
5.90034e-05
5.90035e-05
5.90029e-05
5.90074e-05
5.9006e-05
5.90047e-05
5.90039e-05
5.90033e-05
5.90028e-05
5.90112e-05
5.90098e-05
5.90084e-05
5.90074e-05
5.90064e-05
5.90056e-05
5.9005e-05
5.90152e-05
5.90141e-05
5.9013e-05
5.9012e-05
5.9011e-05
5.90099e-05
5.90089e-05
5.90083e-05
5.90266e-05
5.90213e-05
5.902e-05
5.90124e-05
5.90156e-05
5.9014e-05
5.90068e-05
5.90078e-05
5.90099e-05
5.90085e-05
5.90046e-05
5.9004e-05
5.90043e-05
5.90054e-05
5.90046e-05
5.90049e-05
5.90038e-05
5.9003e-05
5.90028e-05
5.90031e-05
5.90027e-05
5.90073e-05
5.90059e-05
5.90046e-05
5.90038e-05
5.90031e-05
5.90027e-05
5.90024e-05
5.9011e-05
5.90096e-05
5.90083e-05
5.90072e-05
5.90063e-05
5.90055e-05
5.90048e-05
5.90044e-05
5.9015e-05
5.90141e-05
5.90129e-05
5.90118e-05
5.90108e-05
5.90098e-05
5.90089e-05
5.9008e-05
5.90075e-05
5.90385e-05
5.90302e-05
5.90302e-05
5.90178e-05
5.90234e-05
5.90223e-05
5.90101e-05
5.90123e-05
5.90166e-05
5.90149e-05
5.90059e-05
5.90061e-05
5.90074e-05
5.901e-05
5.90088e-05
5.90044e-05
5.90037e-05
5.90035e-05
5.90039e-05
5.90052e-05
5.90045e-05
5.90048e-05
5.90037e-05
5.90029e-05
5.90025e-05
5.90024e-05
5.90028e-05
5.90025e-05
5.90071e-05
5.90058e-05
5.90046e-05
5.90038e-05
5.90031e-05
5.90026e-05
5.90023e-05
5.90021e-05
5.90109e-05
5.90094e-05
5.90081e-05
5.90071e-05
5.90062e-05
5.90054e-05
5.90048e-05
5.90042e-05
5.90039e-05
5.90146e-05
5.90139e-05
5.90128e-05
5.90116e-05
5.90106e-05
5.90097e-05
5.90088e-05
5.9008e-05
5.90073e-05
5.90069e-05
5.90544e-05
5.90417e-05
5.90442e-05
5.90244e-05
5.90338e-05
5.90339e-05
5.90147e-05
5.90183e-05
5.90255e-05
5.90241e-05
5.90086e-05
5.90096e-05
5.90122e-05
5.90172e-05
5.90158e-05
5.90057e-05
5.90055e-05
5.90059e-05
5.9007e-05
5.90099e-05
5.90089e-05
5.90043e-05
5.90036e-05
5.90034e-05
5.90033e-05
5.90036e-05
5.90049e-05
5.90044e-05
5.90047e-05
5.90036e-05
5.90028e-05
5.90025e-05
5.90023e-05
5.90022e-05
5.90026e-05
5.90024e-05
5.90069e-05
5.90057e-05
5.90045e-05
5.90037e-05
5.90031e-05
5.90026e-05
5.90022e-05
5.9002e-05
5.90019e-05
5.9011e-05
5.90092e-05
5.90079e-05
5.90069e-05
5.90061e-05
5.90054e-05
5.90047e-05
5.90042e-05
5.90038e-05
5.90036e-05
5.90144e-05
5.90135e-05
5.90125e-05
5.90114e-05
5.90104e-05
5.90094e-05
5.90086e-05
5.90079e-05
5.90072e-05
5.90066e-05
5.90064e-05
5.9075e-05
5.90566e-05
5.90631e-05
5.90324e-05
5.90475e-05
5.905e-05
5.90206e-05
5.90259e-05
5.90374e-05
5.90373e-05
5.90126e-05
5.90144e-05
5.90187e-05
5.90269e-05
5.90258e-05
5.90083e-05
5.90085e-05
5.90097e-05
5.90118e-05
5.90176e-05
5.90164e-05
5.90057e-05
5.90055e-05
5.90056e-05
5.90057e-05
5.90066e-05
5.90098e-05
5.9009e-05
5.90043e-05
5.90036e-05
5.90033e-05
5.90032e-05
5.90031e-05
5.90033e-05
5.90047e-05
5.90043e-05
5.90046e-05
5.90036e-05
5.90028e-05
5.90024e-05
5.90022e-05
5.90021e-05
5.9002e-05
5.90024e-05
5.90023e-05
5.90069e-05
5.90055e-05
5.90044e-05
5.90037e-05
5.90031e-05
5.90026e-05
5.90022e-05
5.90019e-05
5.90018e-05
5.90017e-05
5.9011e-05
5.90092e-05
5.90077e-05
5.90067e-05
5.90059e-05
5.90053e-05
5.90047e-05
5.90042e-05
5.90038e-05
5.90035e-05
5.90033e-05
5.90144e-05
5.90133e-05
5.90122e-05
5.90112e-05
5.90101e-05
5.90092e-05
5.90084e-05
5.90077e-05
5.90071e-05
5.90066e-05
5.90061e-05
5.9006e-05
5.91016e-05
5.90755e-05
5.90876e-05
5.90419e-05
5.90654e-05
5.90716e-05
5.90277e-05
5.90354e-05
5.90531e-05
5.90556e-05
5.90179e-05
5.90208e-05
5.90273e-05
5.90402e-05
5.90403e-05
5.9012e-05
5.90129e-05
5.90149e-05
5.90185e-05
5.90279e-05
5.90271e-05
5.90085e-05
5.90085e-05
5.90091e-05
5.90095e-05
5.90115e-05
5.90177e-05
5.90168e-05
5.90057e-05
5.90055e-05
5.90056e-05
5.90056e-05
5.90056e-05
5.90063e-05
5.90097e-05
5.9009e-05
5.90042e-05
5.90036e-05
5.90033e-05
5.90032e-05
5.90031e-05
5.9003e-05
5.90031e-05
5.90045e-05
5.90042e-05
5.90045e-05
5.90035e-05
5.90027e-05
5.90024e-05
5.90022e-05
5.90021e-05
5.9002e-05
5.90019e-05
5.90023e-05
5.90022e-05
5.90071e-05
5.90055e-05
5.90043e-05
5.90036e-05
5.9003e-05
5.90026e-05
5.90023e-05
5.9002e-05
5.90017e-05
5.90017e-05
5.90016e-05
5.90108e-05
5.90092e-05
5.90077e-05
5.90066e-05
5.90058e-05
5.90052e-05
5.90046e-05
5.90041e-05
5.90037e-05
5.90034e-05
5.90032e-05
5.90031e-05
5.90145e-05
5.90132e-05
5.90119e-05
5.90108e-05
5.90098e-05
5.90089e-05
5.90082e-05
5.90075e-05
5.9007e-05
5.90065e-05
5.90061e-05
5.90057e-05
5.90056e-05
5.91355e-05
5.9099e-05
5.91199e-05
5.90535e-05
5.90875e-05
5.90997e-05
5.9036e-05
5.9047e-05
5.90732e-05
5.90798e-05
5.90245e-05
5.90289e-05
5.90382e-05
5.90578e-05
5.90603e-05
5.90171e-05
5.90192e-05
5.90221e-05
5.90277e-05
5.90423e-05
5.90431e-05
5.90122e-05
5.90127e-05
5.9014e-05
5.90151e-05
5.90182e-05
5.90285e-05
5.90281e-05
5.90087e-05
5.90087e-05
5.90092e-05
5.90092e-05
5.90097e-05
5.90112e-05
5.90177e-05
5.90171e-05
5.90057e-05
5.90056e-05
5.90057e-05
5.90057e-05
5.90056e-05
5.90056e-05
5.9006e-05
5.90095e-05
5.9009e-05
5.90042e-05
5.90036e-05
5.90033e-05
5.90032e-05
5.90031e-05
5.9003e-05
5.90029e-05
5.90029e-05
5.90043e-05
5.90041e-05
5.90047e-05
5.90035e-05
5.90027e-05
5.90024e-05
5.90022e-05
5.90021e-05
5.9002e-05
5.90019e-05
5.90018e-05
5.90022e-05
5.90021e-05
5.9007e-05
5.90055e-05
5.90043e-05
5.90035e-05
5.9003e-05
5.90026e-05
5.90023e-05
5.9002e-05
5.90018e-05
5.90016e-05
5.90015e-05
5.90015e-05
5.90105e-05
5.9009e-05
5.90076e-05
5.90065e-05
5.90057e-05
5.9005e-05
5.90045e-05
5.90041e-05
5.90037e-05
5.90034e-05
5.90032e-05
5.9003e-05
5.9003e-05
5.90145e-05
5.90131e-05
5.90117e-05
5.90105e-05
5.90095e-05
5.90086e-05
5.90079e-05
5.90073e-05
5.90068e-05
5.90063e-05
5.9006e-05
5.90057e-05
5.90054e-05
5.90054e-05
5.9177e-05
5.91283e-05
5.91613e-05
5.90673e-05
5.91151e-05
5.91373e-05
5.90458e-05
5.90606e-05
5.90976e-05
5.91119e-05
5.90322e-05
5.90382e-05
5.90513e-05
5.90798e-05
5.90873e-05
5.90236e-05
5.90271e-05
5.9031e-05
5.90393e-05
5.90615e-05
5.90649e-05
5.9017e-05
5.90189e-05
5.90211e-05
5.9023e-05
5.90278e-05
5.90441e-05
5.90453e-05
5.90125e-05
5.90129e-05
5.90138e-05
5.90145e-05
5.90156e-05
5.90179e-05
5.90288e-05
5.90288e-05
5.90088e-05
5.90089e-05
5.90094e-05
5.90093e-05
5.90095e-05
5.90098e-05
5.90109e-05
5.90176e-05
5.90172e-05
5.90058e-05
5.90056e-05
5.90058e-05
5.90058e-05
5.90057e-05
5.90056e-05
5.90055e-05
5.90058e-05
5.90093e-05
5.90089e-05
5.90044e-05
5.90037e-05
5.90033e-05
5.90032e-05
5.90031e-05
5.9003e-05
5.90029e-05
5.90028e-05
5.90028e-05
5.90042e-05
5.9004e-05
5.90048e-05
5.90036e-05
5.90027e-05
5.90024e-05
5.90022e-05
5.90021e-05
5.9002e-05
5.90019e-05
5.90018e-05
5.90018e-05
5.90021e-05
5.90021e-05
5.90067e-05
5.90054e-05
5.90043e-05
5.90035e-05
5.9003e-05
5.90026e-05
5.90022e-05
5.9002e-05
5.90018e-05
5.90016e-05
5.90014e-05
5.90014e-05
5.90014e-05
5.90101e-05
5.90086e-05
5.90073e-05
5.90064e-05
5.90056e-05
5.90049e-05
5.90044e-05
5.9004e-05
5.90036e-05
5.90034e-05
5.90032e-05
5.9003e-05
5.90029e-05
5.90029e-05
5.90145e-05
5.9013e-05
5.90116e-05
5.90103e-05
5.90092e-05
5.90083e-05
5.90076e-05
5.9007e-05
5.90065e-05
5.90061e-05
5.90059e-05
5.90056e-05
5.90054e-05
5.90052e-05
5.90052e-05
5.92263e-05
5.91635e-05
5.92113e-05
5.90845e-05
5.91498e-05
5.91849e-05
5.90572e-05
5.90763e-05
5.91286e-05
5.91561e-05
5.90407e-05
5.90487e-05
5.90665e-05
5.91066e-05
5.9124e-05
5.90312e-05
5.90358e-05
5.90408e-05
5.90531e-05
5.90854e-05
5.90941e-05
5.90232e-05
5.90267e-05
5.90298e-05
5.90321e-05
5.90398e-05
5.90649e-05
5.90685e-05
5.90173e-05
5.90185e-05
5.90203e-05
5.90223e-05
5.9024e-05
5.90278e-05
5.90455e-05
5.9047e-05
5.90127e-05
5.90132e-05
5.9014e-05
5.90143e-05
5.90151e-05
5.90161e-05
5.90177e-05
5.9029e-05
5.90292e-05
5.90088e-05
5.9009e-05
5.90095e-05
5.90095e-05
5.90096e-05
5.90096e-05
5.90098e-05
5.90107e-05
5.90175e-05
5.90171e-05
5.90059e-05
5.90056e-05
5.90059e-05
5.90059e-05
5.90058e-05
5.90057e-05
5.90055e-05
5.90054e-05
5.90057e-05
5.90091e-05
5.90088e-05
5.90045e-05
5.90038e-05
5.90034e-05
5.90033e-05
5.90032e-05
5.9003e-05
5.90029e-05
5.90028e-05
5.90027e-05
5.90027e-05
5.9004e-05
5.9004e-05
5.90048e-05
5.90037e-05
5.90029e-05
5.90024e-05
5.90022e-05
5.90021e-05
5.9002e-05
5.90019e-05
5.90019e-05
5.90018e-05
5.90017e-05
5.90021e-05
5.9002e-05
5.90064e-05
5.90051e-05
5.90041e-05
5.90035e-05
5.90029e-05
5.90025e-05
5.90022e-05
5.9002e-05
5.90018e-05
5.90016e-05
5.90015e-05
5.90013e-05
5.90014e-05
5.90013e-05
5.90096e-05
5.90082e-05
5.9007e-05
5.90061e-05
5.90054e-05
5.90048e-05
5.90043e-05
5.90039e-05
5.90036e-05
5.90033e-05
5.90031e-05
5.9003e-05
5.90028e-05
5.90027e-05
5.90028e-05
5.90146e-05
5.90129e-05
5.90114e-05
5.90101e-05
5.9009e-05
5.90081e-05
5.90073e-05
5.90067e-05
5.90063e-05
5.90059e-05
5.90057e-05
5.90055e-05
5.90053e-05
5.90051e-05
5.9005e-05
5.9005e-05
5.9282e-05
5.92046e-05
5.92691e-05
5.91069e-05
5.9191e-05
5.92417e-05
5.90711e-05
5.90975e-05
5.91669e-05
5.92089e-05
5.90503e-05
5.9061e-05
5.9085e-05
5.91419e-05
5.91706e-05
5.90393e-05
5.90446e-05
5.90517e-05
5.90701e-05
5.91153e-05
5.91333e-05
5.90301e-05
5.90353e-05
5.9039e-05
5.90415e-05
5.90544e-05
5.90905e-05
5.90994e-05
5.90231e-05
5.90256e-05
5.90284e-05
5.90313e-05
5.90332e-05
5.90398e-05
5.90675e-05
5.90714e-05
5.90176e-05
5.90185e-05
5.90199e-05
5.90212e-05
5.90231e-05
5.9025e-05
5.90278e-05
5.90464e-05
5.90481e-05
5.90128e-05
5.90133e-05
5.90142e-05
5.90144e-05
5.90148e-05
5.90155e-05
5.90166e-05
5.90176e-05
5.9029e-05
5.90294e-05
5.90088e-05
5.90091e-05
5.90096e-05
5.90097e-05
5.90098e-05
5.90097e-05
5.90097e-05
5.90099e-05
5.90108e-05
5.90173e-05
5.9017e-05
5.90061e-05
5.90058e-05
5.90059e-05
5.90059e-05
5.90059e-05
5.90058e-05
5.90056e-05
5.90055e-05
5.90054e-05
5.90056e-05
5.90089e-05
5.90087e-05
5.90047e-05
5.90039e-05
5.90035e-05
5.90034e-05
5.90033e-05
5.90031e-05
5.90029e-05
5.90028e-05
5.90027e-05
5.90026e-05
5.90026e-05
5.90039e-05
5.90039e-05
5.90046e-05
5.90036e-05
5.90029e-05
5.90025e-05
5.90022e-05
5.90021e-05
5.9002e-05
5.90019e-05
5.90019e-05
5.90018e-05
5.90017e-05
5.90017e-05
5.90021e-05
5.9002e-05
5.90058e-05
5.90048e-05
5.90039e-05
5.90033e-05
5.90029e-05
5.90025e-05
5.90022e-05
5.9002e-05
5.90018e-05
5.90017e-05
5.90015e-05
5.90014e-05
5.90013e-05
5.90013e-05
5.90013e-05
5.90088e-05
5.90077e-05
5.90066e-05
5.90058e-05
5.90052e-05
5.90046e-05
5.90042e-05
5.90038e-05
5.90035e-05
5.90033e-05
5.90031e-05
5.90029e-05
5.90028e-05
5.90027e-05
5.90026e-05
5.90027e-05
5.90151e-05
5.90128e-05
5.90112e-05
5.90099e-05
5.90088e-05
5.90079e-05
5.90071e-05
5.90065e-05
5.9006e-05
5.90057e-05
5.90055e-05
5.90053e-05
5.90052e-05
5.90051e-05
5.9005e-05
5.90048e-05
5.90049e-05
5.93427e-05
5.92513e-05
5.93331e-05
5.91345e-05
5.92385e-05
5.93053e-05
5.90882e-05
5.91255e-05
5.92125e-05
5.92684e-05
5.90623e-05
5.90771e-05
5.91096e-05
5.91837e-05
5.92255e-05
5.90483e-05
5.90539e-05
5.90655e-05
5.9092e-05
5.9152e-05
5.91822e-05
5.90373e-05
5.9044e-05
5.90484e-05
5.90527e-05
5.90735e-05
5.91222e-05
5.91405e-05
5.90296e-05
5.9033e-05
5.9037e-05
5.90406e-05
5.90424e-05
5.90547e-05
5.90946e-05
5.91033e-05
5.90235e-05
5.90251e-05
5.90271e-05
5.90292e-05
5.90322e-05
5.90344e-05
5.90394e-05
5.90695e-05
5.90731e-05
5.90178e-05
5.90187e-05
5.902e-05
5.90208e-05
5.90219e-05
5.90238e-05
5.90258e-05
5.90277e-05
5.90471e-05
5.90489e-05
5.90129e-05
5.90134e-05
5.90143e-05
5.90145e-05
5.90148e-05
5.90152e-05
5.90158e-05
5.90168e-05
5.90176e-05
5.90291e-05
5.90291e-05
5.9009e-05
5.90092e-05
5.90097e-05
5.90098e-05
5.90099e-05
5.90098e-05
5.90098e-05
5.90097e-05
5.90102e-05
5.90107e-05
5.9017e-05
5.90169e-05
5.90063e-05
5.9006e-05
5.9006e-05
5.9006e-05
5.9006e-05
5.90059e-05
5.90057e-05
5.90056e-05
5.90054e-05
5.90053e-05
5.90055e-05
5.90088e-05
5.90086e-05
5.90047e-05
5.90041e-05
5.90037e-05
5.90035e-05
5.90034e-05
5.90032e-05
5.9003e-05
5.90028e-05
5.90027e-05
5.90026e-05
5.90025e-05
5.90026e-05
5.90039e-05
5.90038e-05
5.90043e-05
5.90035e-05
5.90029e-05
5.90025e-05
5.90022e-05
5.90021e-05
5.9002e-05
5.90019e-05
5.90019e-05
5.90018e-05
5.90018e-05
5.90017e-05
5.90016e-05
5.9002e-05
5.9002e-05
5.90052e-05
5.90044e-05
5.90037e-05
5.90031e-05
5.90027e-05
5.90024e-05
5.90022e-05
5.9002e-05
5.90018e-05
5.90017e-05
5.90015e-05
5.90014e-05
5.90013e-05
5.90012e-05
5.90013e-05
5.90012e-05
5.90078e-05
5.9007e-05
5.90062e-05
5.90055e-05
5.90049e-05
5.90044e-05
5.9004e-05
5.90037e-05
5.90034e-05
5.90032e-05
5.9003e-05
5.90029e-05
5.90028e-05
5.90027e-05
5.90026e-05
5.90026e-05
5.90026e-05
5.90155e-05
5.90131e-05
5.90111e-05
5.90097e-05
5.90085e-05
5.90076e-05
5.90069e-05
5.90063e-05
5.90058e-05
5.90055e-05
5.90052e-05
5.90051e-05
5.9005e-05
5.90049e-05
5.90049e-05
5.90048e-05
5.90047e-05
5.90047e-05
5.94083e-05
5.93021e-05
5.94035e-05
5.9166e-05
5.92912e-05
5.9376e-05
5.91086e-05
5.9158e-05
5.92637e-05
5.93359e-05
5.90768e-05
5.90983e-05
5.91408e-05
5.92306e-05
5.9289e-05
5.90593e-05
5.90675e-05
5.9084e-05
5.91222e-05
5.91945e-05
5.92401e-05
5.90454e-05
5.90539e-05
5.90595e-05
5.90688e-05
5.90994e-05
5.91601e-05
5.91911e-05
5.90364e-05
5.90403e-05
5.9046e-05
5.90508e-05
5.90545e-05
5.90757e-05
5.91279e-05
5.91456e-05
5.90302e-05
5.90319e-05
5.90339e-05
5.90372e-05
5.90418e-05
5.90436e-05
5.90543e-05
5.90978e-05
5.91056e-05
5.90238e-05
5.90252e-05
5.90268e-05
5.90277e-05
5.90295e-05
5.90328e-05
5.90351e-05
5.90388e-05
5.90707e-05
5.90738e-05
5.90178e-05
5.90187e-05
5.902e-05
5.90208e-05
5.90213e-05
5.90224e-05
5.90242e-05
5.90262e-05
5.90277e-05
5.90477e-05
5.90488e-05
5.9013e-05
5.90135e-05
5.90143e-05
5.90146e-05
5.90149e-05
5.90152e-05
5.90155e-05
5.9016e-05
5.90171e-05
5.90179e-05
5.90287e-05
5.90291e-05
5.90093e-05
5.90094e-05
5.90097e-05
5.90098e-05
5.901e-05
5.901e-05
5.90099e-05
5.90098e-05
5.901e-05
5.90101e-05
5.90106e-05
5.90169e-05
5.90168e-05
5.90065e-05
5.90062e-05
5.90061e-05
5.90061e-05
5.90061e-05
5.9006e-05
5.90058e-05
5.90057e-05
5.90055e-05
5.90053e-05
5.90053e-05
5.90055e-05
5.90087e-05
5.90085e-05
5.90047e-05
5.90042e-05
5.90038e-05
5.90036e-05
5.90035e-05
5.90033e-05
5.90031e-05
5.90029e-05
5.90027e-05
5.90026e-05
5.90025e-05
5.90025e-05
5.90026e-05
5.90038e-05
5.90038e-05
5.9004e-05
5.90033e-05
5.90028e-05
5.90025e-05
5.90022e-05
5.90021e-05
5.9002e-05
5.90019e-05
5.90019e-05
5.90018e-05
5.90018e-05
5.90017e-05
5.90017e-05
5.90016e-05
5.9002e-05
5.90019e-05
5.90044e-05
5.90038e-05
5.90033e-05
5.90029e-05
5.90026e-05
5.90023e-05
5.90021e-05
5.90019e-05
5.90018e-05
5.90017e-05
5.90015e-05
5.90014e-05
5.90013e-05
5.90012e-05
5.90011e-05
5.90012e-05
5.90012e-05
5.9007e-05
5.90062e-05
5.90057e-05
5.90051e-05
5.90046e-05
5.90042e-05
5.90038e-05
5.90035e-05
5.90032e-05
5.90031e-05
5.90029e-05
5.90028e-05
5.90028e-05
5.90027e-05
5.90026e-05
5.90026e-05
5.90025e-05
5.90026e-05
5.90155e-05
5.90133e-05
5.90111e-05
5.90094e-05
5.90083e-05
5.90074e-05
5.90066e-05
5.9006e-05
5.90056e-05
5.90053e-05
5.9005e-05
5.90049e-05
5.90048e-05
5.90048e-05
5.90048e-05
5.90047e-05
5.90047e-05
5.90045e-05
5.90046e-05
5.94786e-05
5.93564e-05
5.94806e-05
5.91994e-05
5.93484e-05
5.94547e-05
5.91315e-05
5.91928e-05
5.93204e-05
5.94124e-05
5.90931e-05
5.91221e-05
5.91753e-05
5.92837e-05
5.93618e-05
5.90727e-05
5.90843e-05
5.9107e-05
5.91554e-05
5.92435e-05
5.93073e-05
5.90556e-05
5.9067e-05
5.90742e-05
5.90899e-05
5.91307e-05
5.92042e-05
5.92515e-05
5.90439e-05
5.90489e-05
5.90574e-05
5.90643e-05
5.90714e-05
5.91037e-05
5.91669e-05
5.91976e-05
5.90376e-05
5.90383e-05
5.90408e-05
5.9047e-05
5.9053e-05
5.90562e-05
5.90765e-05
5.91324e-05
5.91489e-05
5.9031e-05
5.90322e-05
5.90333e-05
5.90334e-05
5.90371e-05
5.90422e-05
5.90447e-05
5.90533e-05
5.90998e-05
5.91065e-05
5.90238e-05
5.90252e-05
5.9027e-05
5.90275e-05
5.90279e-05
5.90295e-05
5.90327e-05
5.90353e-05
5.90381e-05
5.90712e-05
5.90738e-05
5.90178e-05
5.90187e-05
5.902e-05
5.90207e-05
5.90212e-05
5.90219e-05
5.90228e-05
5.90243e-05
5.90263e-05
5.90279e-05
5.90475e-05
5.90488e-05
5.90133e-05
5.90137e-05
5.90143e-05
5.90146e-05
5.9015e-05
5.90152e-05
5.90154e-05
5.90157e-05
5.90162e-05
5.90173e-05
5.90178e-05
5.90286e-05
5.90289e-05
5.90095e-05
5.90096e-05
5.90098e-05
5.90098e-05
5.901e-05
5.90101e-05
5.901e-05
5.90098e-05
5.901e-05
5.901e-05
5.90102e-05
5.90107e-05
5.90168e-05
5.90167e-05
5.90066e-05
5.90064e-05
5.90063e-05
5.90062e-05
5.90061e-05
5.9006e-05
5.90059e-05
5.90058e-05
5.90056e-05
5.90054e-05
5.90053e-05
5.90054e-05
5.90056e-05
5.90086e-05
5.90085e-05
5.90047e-05
5.90042e-05
5.9004e-05
5.90038e-05
5.90036e-05
5.90034e-05
5.90032e-05
5.9003e-05
5.90028e-05
5.90026e-05
5.90025e-05
5.90025e-05
5.90025e-05
5.90026e-05
5.90038e-05
5.90038e-05
5.90037e-05
5.90031e-05
5.90027e-05
5.90025e-05
5.90022e-05
5.90021e-05
5.90019e-05
5.90019e-05
5.90018e-05
5.90018e-05
5.90018e-05
5.90017e-05
5.90017e-05
5.90016e-05
5.90016e-05
5.9002e-05
5.90019e-05
5.90043e-05
5.90034e-05
5.9003e-05
5.90027e-05
5.90024e-05
5.90022e-05
5.9002e-05
5.90018e-05
5.90017e-05
5.90016e-05
5.90015e-05
5.90014e-05
5.90014e-05
5.90013e-05
5.90012e-05
5.90011e-05
5.90012e-05
5.90011e-05
5.90066e-05
5.90056e-05
5.9005e-05
5.90047e-05
5.90043e-05
5.90039e-05
5.90036e-05
5.90033e-05
5.90031e-05
5.90029e-05
5.90028e-05
5.90028e-05
5.90027e-05
5.90027e-05
5.90026e-05
5.90026e-05
5.90025e-05
5.90024e-05
5.90025e-05
5.90154e-05
5.90131e-05
5.90112e-05
5.90094e-05
5.9008e-05
5.90071e-05
5.90064e-05
5.90058e-05
5.90054e-05
5.90051e-05
5.90048e-05
5.90047e-05
5.90046e-05
5.90046e-05
5.90046e-05
5.90046e-05
5.90046e-05
5.90045e-05
5.90044e-05
5.90044e-05
5.95535e-05
5.94135e-05
5.95649e-05
5.92339e-05
5.941e-05
5.95421e-05
5.91552e-05
5.92286e-05
5.93829e-05
5.9499e-05
5.91099e-05
5.91467e-05
5.92108e-05
5.93441e-05
5.94445e-05
5.90876e-05
5.91011e-05
5.91305e-05
5.91893e-05
5.93004e-05
5.93838e-05
5.90685e-05
5.90825e-05
5.90897e-05
5.91106e-05
5.91641e-05
5.92557e-05
5.93212e-05
5.90531e-05
5.90615e-05
5.90718e-05
5.90786e-05
5.90897e-05
5.91365e-05
5.92126e-05
5.92599e-05
5.90456e-05
5.90451e-05
5.90506e-05
5.90606e-05
5.90659e-05
5.90714e-05
5.91059e-05
5.91725e-05
5.9202e-05
5.90392e-05
5.90391e-05
5.90394e-05
5.90406e-05
5.90478e-05
5.90535e-05
5.90565e-05
5.9076e-05
5.91357e-05
5.91502e-05
5.90314e-05
5.90328e-05
5.90342e-05
5.90332e-05
5.90329e-05
5.90368e-05
5.9042e-05
5.90451e-05
5.90519e-05
5.91011e-05
5.91066e-05
5.90237e-05
5.90252e-05
5.90272e-05
5.90278e-05
5.90277e-05
5.9028e-05
5.90294e-05
5.90323e-05
5.90352e-05
5.90375e-05
5.90713e-05
5.90734e-05
5.90179e-05
5.90187e-05
5.90198e-05
5.90206e-05
5.90212e-05
5.90217e-05
5.90222e-05
5.9023e-05
5.90243e-05
5.90266e-05
5.90276e-05
5.90474e-05
5.90488e-05
5.90136e-05
5.9014e-05
5.90143e-05
5.90146e-05
5.9015e-05
5.90153e-05
5.90154e-05
5.90156e-05
5.90159e-05
5.90165e-05
5.90172e-05
5.90177e-05
5.90284e-05
5.90288e-05
5.90098e-05
5.901e-05
5.90099e-05
5.90099e-05
5.901e-05
5.90101e-05
5.90101e-05
5.90099e-05
5.901e-05
5.90099e-05
5.901e-05
5.90103e-05
5.90108e-05
5.90167e-05
5.90166e-05
5.90067e-05
5.90065e-05
5.90064e-05
5.90063e-05
5.90062e-05
5.90061e-05
5.90059e-05
5.90058e-05
5.90057e-05
5.90055e-05
5.90053e-05
5.90054e-05
5.90055e-05
5.90056e-05
5.90086e-05
5.90084e-05
5.90048e-05
5.90043e-05
5.90041e-05
5.90039e-05
5.90037e-05
5.90035e-05
5.90033e-05
5.90031e-05
5.90029e-05
5.90026e-05
5.90025e-05
5.90025e-05
5.90025e-05
5.90025e-05
5.90026e-05
5.90038e-05
5.90037e-05
5.90039e-05
5.90031e-05
5.90026e-05
5.90023e-05
5.90022e-05
5.90021e-05
5.90019e-05
5.90019e-05
5.90018e-05
5.90018e-05
5.90018e-05
5.90017e-05
5.90017e-05
5.90017e-05
5.90016e-05
5.90016e-05
5.9002e-05
5.90019e-05
5.90046e-05
5.90035e-05
5.90027e-05
5.90025e-05
5.90022e-05
5.90021e-05
5.90019e-05
5.90018e-05
5.90017e-05
5.90016e-05
5.90015e-05
5.90014e-05
5.90014e-05
5.90013e-05
5.90012e-05
5.90012e-05
5.90011e-05
5.90011e-05
5.90011e-05
5.90064e-05
5.90054e-05
5.90046e-05
5.90042e-05
5.9004e-05
5.90036e-05
5.90033e-05
5.90031e-05
5.90029e-05
5.90028e-05
5.90027e-05
5.90026e-05
5.90026e-05
5.90026e-05
5.90026e-05
5.90025e-05
5.90025e-05
5.90024e-05
5.90024e-05
5.90024e-05
5.90153e-05
5.90128e-05
5.90108e-05
5.90093e-05
5.90079e-05
5.90068e-05
5.90061e-05
5.90056e-05
5.90052e-05
5.90049e-05
5.90046e-05
5.90045e-05
5.90044e-05
5.90044e-05
5.90044e-05
5.90045e-05
5.90045e-05
5.90045e-05
5.90044e-05
5.90043e-05
5.90043e-05
5.96327e-05
5.94726e-05
5.96569e-05
5.92686e-05
5.94754e-05
5.96394e-05
5.91786e-05
5.92651e-05
5.9451e-05
5.95967e-05
5.91253e-05
5.91703e-05
5.92469e-05
5.94116e-05
5.95384e-05
5.91022e-05
5.91156e-05
5.91526e-05
5.92236e-05
5.9365e-05
5.94708e-05
5.90831e-05
5.90969e-05
5.91015e-05
5.91305e-05
5.91978e-05
5.93153e-05
5.94004e-05
5.9065e-05
5.90772e-05
5.90858e-05
5.90885e-05
5.91079e-05
5.91701e-05
5.92658e-05
5.93316e-05
5.90545e-05
5.90555e-05
5.90648e-05
5.90747e-05
5.90758e-05
5.90871e-05
5.91391e-05
5.92195e-05
5.92655e-05
5.90482e-05
5.9046e-05
5.90467e-05
5.90532e-05
5.90609e-05
5.90643e-05
5.90691e-05
5.91058e-05
5.91768e-05
5.92041e-05
5.90406e-05
5.90407e-05
5.90408e-05
5.90391e-05
5.90413e-05
5.90477e-05
5.90522e-05
5.90553e-05
5.90742e-05
5.91378e-05
5.91505e-05
5.90315e-05
5.90334e-05
5.90352e-05
5.90343e-05
5.90327e-05
5.90324e-05
5.90365e-05
5.90411e-05
5.90448e-05
5.90499e-05
5.91019e-05
5.91062e-05
5.90236e-05
5.90252e-05
5.90272e-05
5.90281e-05
5.90279e-05
5.90276e-05
5.90278e-05
5.90292e-05
5.90318e-05
5.90351e-05
5.90367e-05
5.90709e-05
5.90732e-05
5.90182e-05
5.90189e-05
5.90197e-05
5.90205e-05
5.90212e-05
5.90216e-05
5.90219e-05
5.90224e-05
5.9023e-05
5.90247e-05
5.90261e-05
5.90273e-05
5.90472e-05
5.90488e-05
5.90141e-05
5.90144e-05
5.90145e-05
5.90146e-05
5.90151e-05
5.90153e-05
5.90155e-05
5.90156e-05
5.90158e-05
5.90163e-05
5.90164e-05
5.90172e-05
5.90178e-05
5.90284e-05
5.90287e-05
5.90101e-05
5.90103e-05
5.90101e-05
5.901e-05
5.90101e-05
5.90101e-05
5.90101e-05
5.90101e-05
5.90101e-05
5.90099e-05
5.90099e-05
5.901e-05
5.90105e-05
5.90108e-05
5.90167e-05
5.90166e-05
5.90069e-05
5.90067e-05
5.90066e-05
5.90064e-05
5.90063e-05
5.90061e-05
5.9006e-05
5.90058e-05
5.90057e-05
5.90055e-05
5.90054e-05
5.90054e-05
5.90054e-05
5.90055e-05
5.90056e-05
5.90086e-05
5.90084e-05
5.90052e-05
5.90046e-05
5.90043e-05
5.9004e-05
5.90038e-05
5.90037e-05
5.90035e-05
5.90032e-05
5.90029e-05
5.90027e-05
5.90026e-05
5.90025e-05
5.90025e-05
5.90025e-05
5.90025e-05
5.90026e-05
5.90038e-05
5.90037e-05
5.90047e-05
5.90035e-05
5.90027e-05
5.90024e-05
5.90021e-05
5.90021e-05
5.90019e-05
5.90019e-05
5.90018e-05
5.90018e-05
5.90017e-05
5.90017e-05
5.90017e-05
5.90017e-05
5.90016e-05
5.90016e-05
5.90016e-05
5.90019e-05
5.90018e-05
5.90048e-05
5.90038e-05
5.90029e-05
5.90023e-05
5.90021e-05
5.9002e-05
5.90018e-05
5.90017e-05
5.90016e-05
5.90015e-05
5.90015e-05
5.90014e-05
5.90013e-05
5.90013e-05
5.90012e-05
5.90012e-05
5.90011e-05
5.9001e-05
5.90011e-05
5.9001e-05
5.90062e-05
5.90052e-05
5.90044e-05
5.90039e-05
5.90036e-05
5.90034e-05
5.90031e-05
5.90029e-05
5.90028e-05
5.90026e-05
5.90026e-05
5.90025e-05
5.90025e-05
5.90025e-05
5.90025e-05
5.90025e-05
5.90025e-05
5.90024e-05
5.90024e-05
5.90023e-05
5.90024e-05
5.90152e-05
5.90125e-05
5.90105e-05
5.9009e-05
5.90077e-05
5.90067e-05
5.90059e-05
5.90053e-05
5.90049e-05
5.90046e-05
5.90044e-05
5.90043e-05
5.90043e-05
5.90042e-05
5.90043e-05
5.90043e-05
5.90043e-05
5.90043e-05
5.90043e-05
5.90042e-05
5.90041e-05
5.90041e-05
5.97161e-05
5.9533e-05
5.97569e-05
5.93034e-05
5.9544e-05
5.9748e-05
5.9201e-05
5.93022e-05
5.95235e-05
5.97074e-05
5.91388e-05
5.91926e-05
5.92838e-05
5.94845e-05
5.96455e-05
5.91143e-05
5.91269e-05
5.91731e-05
5.92589e-05
5.94361e-05
5.95705e-05
5.90972e-05
5.91081e-05
5.91095e-05
5.91494e-05
5.92313e-05
5.93821e-05
5.94911e-05
5.90788e-05
5.90917e-05
5.90951e-05
5.90946e-05
5.91256e-05
5.92023e-05
5.9327e-05
5.94127e-05
5.90654e-05
5.907e-05
5.90793e-05
5.90835e-05
5.90815e-05
5.91028e-05
5.91717e-05
5.92739e-05
5.93383e-05
5.90575e-05
5.90546e-05
5.90585e-05
5.90675e-05
5.90707e-05
5.90706e-05
5.9082e-05
5.91387e-05
5.92247e-05
5.92683e-05
5.90507e-05
5.90484e-05
5.90477e-05
5.90488e-05
5.90541e-05
5.90586e-05
5.90603e-05
5.90654e-05
5.91037e-05
5.91797e-05
5.92046e-05
5.90416e-05
5.90424e-05
5.90429e-05
5.90404e-05
5.90392e-05
5.90421e-05
5.90465e-05
5.90497e-05
5.90536e-05
5.90718e-05
5.91391e-05
5.915e-05
5.90314e-05
5.90338e-05
5.90362e-05
5.90358e-05
5.90338e-05
5.90321e-05
5.90325e-05
5.90362e-05
5.90399e-05
5.9044e-05
5.90487e-05
5.91017e-05
5.91057e-05
5.90237e-05
5.90251e-05
5.90272e-05
5.90285e-05
5.90285e-05
5.90278e-05
5.90273e-05
5.90275e-05
5.90289e-05
5.90315e-05
5.9034e-05
5.9036e-05
5.90708e-05
5.90729e-05
5.90187e-05
5.90193e-05
5.90196e-05
5.90203e-05
5.90211e-05
5.90216e-05
5.90218e-05
5.9022e-05
5.90224e-05
5.90236e-05
5.90242e-05
5.90259e-05
5.90271e-05
5.90472e-05
5.90488e-05
5.90146e-05
5.90149e-05
5.90147e-05
5.90147e-05
5.90151e-05
5.90154e-05
5.90156e-05
5.90157e-05
5.90159e-05
5.90162e-05
5.90161e-05
5.90164e-05
5.90174e-05
5.90178e-05
5.90284e-05
5.90286e-05
5.90104e-05
5.90106e-05
5.90103e-05
5.90102e-05
5.90102e-05
5.90101e-05
5.90101e-05
5.90101e-05
5.90101e-05
5.901e-05
5.90099e-05
5.901e-05
5.90103e-05
5.90106e-05
5.90109e-05
5.90166e-05
5.90165e-05
5.90074e-05
5.90071e-05
5.9007e-05
5.90066e-05
5.90064e-05
5.90062e-05
5.90061e-05
5.90059e-05
5.90057e-05
5.90055e-05
5.90055e-05
5.90055e-05
5.90055e-05
5.90055e-05
5.90055e-05
5.90057e-05
5.90085e-05
5.90084e-05
5.90061e-05
5.90053e-05
5.90047e-05
5.90043e-05
5.9004e-05
5.90038e-05
5.90035e-05
5.90033e-05
5.90031e-05
5.90028e-05
5.90027e-05
5.90026e-05
5.90025e-05
5.90025e-05
5.90025e-05
5.90025e-05
5.90026e-05
5.90038e-05
5.90037e-05
5.90052e-05
5.90041e-05
5.9003e-05
5.90025e-05
5.90022e-05
5.9002e-05
5.90019e-05
5.90019e-05
5.90018e-05
5.90017e-05
5.90017e-05
5.90017e-05
5.90017e-05
5.90017e-05
5.90017e-05
5.90016e-05
5.90016e-05
5.90015e-05
5.90019e-05
5.90018e-05
5.90045e-05
5.90036e-05
5.9003e-05
5.90024e-05
5.9002e-05
5.90019e-05
5.90018e-05
5.90017e-05
5.90016e-05
5.90015e-05
5.90014e-05
5.90014e-05
5.90013e-05
5.90013e-05
5.90012e-05
5.90012e-05
5.90011e-05
5.90011e-05
5.9001e-05
5.90011e-05
5.9001e-05
5.9006e-05
5.90049e-05
5.90042e-05
5.90037e-05
5.90033e-05
5.90031e-05
5.90029e-05
5.90027e-05
5.90026e-05
5.90025e-05
5.90024e-05
5.90024e-05
5.90024e-05
5.90024e-05
5.90024e-05
5.90024e-05
5.90024e-05
5.90024e-05
5.90024e-05
5.90023e-05
5.90022e-05
5.90023e-05
5.90152e-05
5.90124e-05
5.90102e-05
5.90086e-05
5.90074e-05
5.90065e-05
5.90057e-05
5.90051e-05
5.90047e-05
5.90044e-05
5.90042e-05
5.90041e-05
5.90041e-05
5.90041e-05
5.90041e-05
5.90041e-05
5.90042e-05
5.90042e-05
5.90042e-05
5.90042e-05
5.90041e-05
5.90039e-05
5.90039e-05
5.9803e-05
5.95937e-05
5.98656e-05
5.93378e-05
5.96144e-05
5.98701e-05
5.92221e-05
5.93397e-05
5.95988e-05
5.98342e-05
5.91505e-05
5.92136e-05
5.93217e-05
5.95606e-05
5.97693e-05
5.91235e-05
5.91362e-05
5.91927e-05
5.92952e-05
5.9511e-05
5.96856e-05
5.9109e-05
5.91151e-05
5.9115e-05
5.91675e-05
5.9265e-05
5.94537e-05
5.95955e-05
5.90923e-05
5.91031e-05
5.90995e-05
5.90985e-05
5.91423e-05
5.92331e-05
5.93945e-05
5.95057e-05
5.90781e-05
5.90846e-05
5.90891e-05
5.90872e-05
5.90846e-05
5.91178e-05
5.92015e-05
5.93355e-05
5.94205e-05
5.90682e-05
5.90667e-05
5.90724e-05
5.9077e-05
5.90752e-05
5.90735e-05
5.90953e-05
5.91695e-05
5.92795e-05
5.9342e-05
5.9061e-05
5.90564e-05
5.9057e-05
5.9062e-05
5.90646e-05
5.90648e-05
5.9064e-05
5.90759e-05
5.91357e-05
5.92281e-05
5.92692e-05
5.90529e-05
5.90513e-05
5.90501e-05
5.90483e-05
5.90502e-05
5.90532e-05
5.90546e-05
5.90556e-05
5.90615e-05
5.91009e-05
5.91814e-05
5.92039e-05
5.90421e-05
5.90439e-05
5.90453e-05
5.90427e-05
5.90399e-05
5.904e-05
5.90423e-05
5.90445e-05
5.90469e-05
5.9051e-05
5.90697e-05
5.9139e-05
5.91493e-05
5.90312e-05
5.90339e-05
5.90371e-05
5.90374e-05
5.90355e-05
5.9033e-05
5.90319e-05
5.90331e-05
5.90356e-05
5.90387e-05
5.90422e-05
5.90473e-05
5.91014e-05
5.91061e-05
5.9024e-05
5.90252e-05
5.9027e-05
5.90287e-05
5.90292e-05
5.90286e-05
5.90275e-05
5.90269e-05
5.90272e-05
5.9029e-05
5.90304e-05
5.90335e-05
5.90357e-05
5.90701e-05
5.90728e-05
5.90194e-05
5.90198e-05
5.90198e-05
5.90201e-05
5.9021e-05
5.90215e-05
5.90218e-05
5.90218e-05
5.90219e-05
5.9023e-05
5.90232e-05
5.9024e-05
5.90258e-05
5.90271e-05
5.90473e-05
5.90488e-05
5.9015e-05
5.90154e-05
5.9015e-05
5.9015e-05
5.90152e-05
5.90155e-05
5.90157e-05
5.90158e-05
5.90159e-05
5.90161e-05
5.90159e-05
5.90161e-05
5.90165e-05
5.90174e-05
5.90178e-05
5.90284e-05
5.90286e-05
5.90108e-05
5.9011e-05
5.90108e-05
5.90105e-05
5.90104e-05
5.90103e-05
5.90102e-05
5.90101e-05
5.90101e-05
5.901e-05
5.90098e-05
5.90099e-05