/*--------------------------------*- C++ -*----------------------------------*\
  =========                 |
  \\      /  F ield         | OpenFOAM: The Open Source CFD Toolbox
   \\    /   O peration     | Website:  https://openfoam.org
    \\  /    A nd           | Version:  13
     \\/     M anipulation  |
\*---------------------------------------------------------------------------*/
FoamFile
{
    format      ascii;
    class       volScalarField;
    location    "2000";
    object      p;
}
// * * * * * * * * * * * * * * * * * * * * * * * * * * * * * * * * * * * * * //

dimensions      [1 -1 -2 0 0 0 0];

internalField   nonuniform List<scalar> 
294912
(
80526.2
80523.5
80526.1
80534.5
80519.6
80523.4
80531.6
80526.1
80534.2
80540.3
80518
80519.6
80526.8
80523.4
80531.5
80538.9
80526
80534.1
80540
80544.7
80516.8
80517.9
80524
80519.5
80526.7
80533.7
80523.4
80531.4
80538.6
80545.8
80525.9
80533.9
80539.8
80544.3
80548.3
80516.9
80516.8
80521.3
80517.9
80523.9
80530.9
80519.4
80526.6
80533.5
80541.1
80523.3
80531.2
80538.4
80545.4
80552.1
80525.7
80533.7
80539.4
80544
80547.8
80551.3
80517.8
80516.9
80519.3
80516.8
80521.2
80527.6
80517.8
80523.8
80530.7
80538.9
80519.3
80526.4
80533.3
80540.7
80549.5
80523.2
80531.1
80538.2
80545.1
80551.6
80558.1
80525.6
80533.4
80539.1
80543.6
80547.5
80550.8
80553.3
80519.5
80517.8
80517.5
80516.9
80519.2
80525
80516.7
80521.1
80527.4
80535.7
80517.6
80523.6
80530.5
80538.5
80549.3
80519.2
80526.2
80533.1
80540.4
80548.9
80558
80523
80530.8
80537.9
80544.8
80551.2
80557.4
80563.4
80525.3
80533.1
80538.7
80543.1
80546.9
80550.4
80552.8
80554.7
80521.7
80519.6
80516.5
80517.9
80517.4
80523.5
80516.8
80519.2
80524.9
80533.4
80516.5
80520.9
80527.3
80535.5
80548
80517.4
80523.4
80530.3
80538.3
80548.8
80562
80519
80525.9
80532.8
80540.1
80548.5
80557.3
80566.1
80522.8
80530.5
80537.6
80544.3
80550.7
80556.9
80562.6
80567.6
80525.1
80532.7
80538.2
80542.6
80546.4
80549.7
80552.3
80554.2
80555.5
80524.2
80521.9
80515.7
80519.7
80516.3
80522.3
80517.8
80517.4
80523.4
80531.3
80516.5
80519
80524.8
80533.1
80546.9
80516.2
80520.7
80527
80535.2
80547.5
80564.7
80517.2
80523.1
80530
80537.8
80548.3
80561.2
80575.6
80518.8
80525.7
80532.5
80539.7
80547.9
80556.7
80565.3
80573.5
80522.5
80530.2
80537.1
80543.8
80550.1
80556.2
80562
80566.8
80570.7
80524.8
80532.3
80537.7
80541.9
80545.7
80549.1
80551.6
80553.7
80555
80556
80526.5
80524.4
80515.2
80521.9
80515.5
80521.6
80519.6
80516.4
80522.1
80530.1
80517.5
80517.2
80523.4
80531
80545.6
80516.2
80518.7
80524.5
80533
80546.3
80567.6
80515.9
80520.4
80526.7
80534.8
80547
80563.9
80585.6
80516.9
80522.9
80529.7
80537.5
80547.7
80560.5
80574.5
80588.5
80518.5
80525.3
80532.1
80539.2
80547.4
80555.9
80564.5
80572.5
80579
80522.3
80529.8
80536.7
80543.1
80549.4
80555.4
80561.1
80566.1
80569.9
80573
80524.4
80531.8
80537.1
80541.3
80545
80548.3
80550.9
80552.9
80554.5
80555.5
80556
80528.4
80526.6
80514.7
80524.3
80514.9
80521.3
80521.8
80515.5
80521.3
80529.4
80519.3
80516.2
80522.1
80529.7
80544.7
80517.1
80516.9
80523
80530.9
80545
80569.1
80515.9
80518.4
80524.2
80532.5
80546
80566.5
80596.2
80515.6
80520.1
80526.4
80534.4
80546.4
80563.1
80584.4
80606.3
80516.6
80522.5
80529.3
80537
80547.1
80559.5
80573.5
80587.3
80599.2
80518.2
80524.9
80531.6
80538.6
80546.7
80555.1
80563.5
80571.6
80578.1
80583.1
80522
80529.3
80536.1
80542.4
80548.6
80554.6
80560.2
80565.1
80569.1
80572.2
80574.6
80524.1
80531.3
80536.5
80540.5
80544.2
80547.4
80550
80552.1
80553.6
80554.9
80555.7
80556
80529.7
80528.5
80514
80526.5
80514.4
80521
80524.2
80514.8
80521
80529.2
80521.5
80515.3
80521.3
80529
80544.1
80518.8
80515.8
80521.8
80529.7
80543.9
80570
80516.7
80516.5
80522.6
80530.5
80544.7
80567.8
80605.5
80515.5
80518.1
80523.8
80532.1
80545.2
80565.8
80594.6
80629.1
80515.3
80519.7
80526
80533.9
80545.8
80562
80583.2
80604.7
80626.3
80516.3
80522.2
80528.9
80536.5
80546.4
80558.6
80572.2
80586.1
80598.1
80606.3
80517.9
80524.5
80531.1
80538
80545.9
80554.1
80562.4
80570.3
80577
80582.2
80586
80521.7
80528.9
80535.5
80541.7
80547.8
80553.6
80559.1
80564
80568
80571.3
80573.8
80575.8
80523.6
80530.7
80535.8
80539.8
80543.3
80546.5
80549
80551.1
80552.8
80554.1
80555.1
80555.7
80556
80530.5
80529.8
80513.1
80528.2
80513.7
80520.6
80526.3
80514.1
80520.6
80528.8
80523.8
80514.6
80520.8
80528.6
80543.7
80521
80514.9
80521.1
80528.9
80543.2
80570.7
80518.3
80515.4
80521.4
80529.2
80543.7
80568.4
80612.9
80516.3
80516.1
80522.2
80529.9
80543.9
80567.1
80603.3
80654
80515.1
80517.7
80523.4
80531.6
80544.6
80564.6
80593.3
80626.9
80663.6
80514.9
80519.4
80525.6
80533.5
80545.1
80561.1
80581.6
80603.2
80624.9
80639.3
80516
80521.8
80528.4
80535.9
80545.7
80557.6
80571
80584.4
80596.6
80605.4
80610.9
80517.5
80524
80530.6
80537.4
80545.1
80553.1
80561.3
80569
80575.6
80581
80585
80588.1
80521.3
80528.5
80535
80540.9
80546.8
80552.5
80558
80562.7
80566.8
80570.1
80572.9
80575
80576.6
80523.2
80530.1
80535.1
80538.9
80542.4
80545.5
80548
80550.1
80551.8
80553.2
80554.2
80555.1
80555.7
80556
80530.4
80530.4
80512.1
80529.3
80512.7
80519.9
80527.9
80513.2
80520.1
80528.4
80525.8
80513.9
80520.2
80528.1
80543.4
80523.2
80514.1
80520.5
80528.4
80542.6
80571.1
80520.3
80514.4
80520.5
80528.4
80543
80568.9
80618.3
80517.8
80514.9
80520.8
80528.5
80542.9
80567.9
80610
80676.5
80515.7
80515.7
80521.7
80529.3
80543.2
80565.8
80601.9
80651
80706.6
80514.6
80517.3
80523
80531
80543.8
80563.5
80591.4
80625.1
80661.3
80688.5
80514.5
80519
80525.1
80532.9
80544.4
80560
80580
80601.2
80623
80638.2
80646.8
80515.6
80521.3
80527.9
80535.3
80544.9
80556.6
80569.5
80582.8
80594.6
80603.7
80610
80613.8
80517.2
80523.6
80530
80536.7
80544.2
80552.1
80560
80567.5
80574
80579.4
80583.8
80587.1
80589.6
80521
80527.9
80534.3
80540.1
80545.9
80551.4
80556.7
80561.4
80565.4
80568.8
80571.7
80574.1
80575.8
80577.2
80522.7
80529.5
80534.4
80538.1
80541.4
80544.4
80546.9
80548.9
80550.6
80552.1
80553.3
80554.2
80555.1
80555.7
80555.9
80530
80530.3
80510.9
80529.7
80511.6
80519.1
80528.9
80511.9
80519.4
80527.6
80527.3
80512.8
80519.4
80527.5
80542.8
80525.1
80513.3
80519.9
80527.6
80542
80571.1
80522.4
80513.5
80519.9
80528
80542.2
80568.9
80621.5
80519.6
80513.8
80519.8
80527.6
80542.1
80568.3
80614.6
80695.2
80517.1
80514.4
80520.3
80527.8
80541.9
80566.3
80608.6
80672
80751.6
80515.2
80515.3
80521.2
80528.8
80542.3
80564.5
80599.6
80648.8
80702.6
80755
80514.2
80516.8
80522.5
80530.5
80543.1
80562.3
80589.7
80622.4
80658.9
80686.9
80703.6
80514.1
80518.5
80524.6
80532.3
80543.6
80558.9
80578.3
80599.2
80620.4
80636
80646.5
80649.5
80515.3
80520.9
80527.4
80534.7
80544.1
80555.5
80568
80581
80592.5
80601.6
80608.3
80613
80615.7
80516.8
80523.1
80529.4
80536
80543.2
80551
80558.7
80565.9
80572.3
80577.6
80582.1
80585.8
80588.7
80590.8
80520.6
80527.4
80533.6
80539.2
80544.9
80550.2
80555.4
80559.9
80563.9
80567.3
80570.3
80572.8
80574.9
80576.5
80577.8
80522.2
80528.7
80533.6
80537.2
80540.5
80543.3
80545.7
80547.7
80549.5
80551
80552.2
80553.2
80554.2
80555
80555.6
80555.9
80529.3
80529.8
80509.7
80529.4
80510.4
80518.1
80529.2
80510.6
80518.6
80526.7
80528.1
80511.5
80518.3
80526.8
80542.2
80526.5
80512.2
80519
80526.6
80541.4
80570.8
80524.1
80512.6
80519.1
80527.1
80541.4
80568.6
80623.2
80521.6
80512.8
80519.1
80526.9
80541.4
80568.3
80617
80708.4
80518.9
80513.2
80519.2
80526.7
80540.9
80566.7
80613.2
80688.7
80796.2
80516.5
80513.9
80519.7
80527.1
80541
80564.8
80605.8
80669.6
80745.2
80835.8
80514.6
80514.8
80520.6
80528.1
80541.5
80563.2
80597.5
80645.2
80699.6
80752
80786.3
80513.7
80516.4
80522
80529.8
80542.2
80561.1
80587.8
80619.8
80655.3
80684
80704.9
80702.5
80513.7
80518.1
80524.1
80531.7
80542.8
80557.7
80576.6
80597
80617.6
80633.1
80644.2
80649.8
80649.5
80514.9
80520.4
80526.8
80534
80543.2
80554.3
80566.4
80579.1
80590.3
80599.1
80606
80611.2
80614.8
80617
80516.5
80522.6
80528.8
80535.2
80542.2
80549.8
80557.3
80564.3
80570.4
80575.7
80580.2
80584
80587.3
80589.9
80591.8
80520.3
80526.7
80532.8
80538.3
80543.8
80549
80554
80558.4
80562.3
80565.7
80568.7
80571.3
80573.6
80575.5
80577
80578.2
80521.6
80527.9
80532.6
80536.2
80539.4
80542.2
80544.5
80546.5
80548.2
80549.7
80551
80552.1
80553.2
80554.1
80555
80555.6
80555.8
80528.3
80529
80508.3
80528.6
80509.1
80517
80528.7
80509
80517.6
80525.7
80528.2
80510
80517
80525.9
80541.4
80527.2
80510.7
80517.8
80525.3
80540.7
80570.2
80525.5
80511.3
80518.1
80526.1
80540.2
80568.1
80624.3
80523.2
80511.8
80518.2
80525.9
80540.6
80567.6
80618.3
80717.1
80520.7
80512.2
80518.2
80525.8
80539.9
80566.6
80615.6
80700.1
80834.9
80518.1
80512.6
80518.4
80525.8
80539.7
80564.8
80610
80685.8
80787.1
80920.9
80515.7
80513.3
80519
80526.3
80540
80563.3
80603.3
80665
80741.3
80830.3
80895.4
80513.9
80514.3
80520
80527.4
80540.6
80561.9
80595.3
80641.7
80694.8
80748.5
80788
80787.1
80513.1
80515.9
80521.5
80529.2
80541.4
80559.8
80585.9
80617
80651.7
80680.1
80702.4
80704.9
80698.6
80513.3
80517.6
80523.6
80531.1
80542
80556.5
80574.8
80594.5
80614.7
80629.8
80641.2
80647.6
80649.7
80649.2
80514.6
80520
80526.2
80533.3
80542.2
80553
80564.8
80577.1
80587.8
80596.5
80603.4
80608.8
80613
80616.1
80618.1
80516.1
80522
80528.1
80534.3
80541.2
80548.6
80555.8
80562.5
80568.5
80573.7
80578.1
80582.1
80585.5
80588.5
80590.8
80592.5
80519.5
80526.1
80531.9
80537.4
80542.7
80547.7
80552.6
80556.9
80560.7
80564
80567.1
80569.7
80572.1
80574.2
80576
80577.4
80578.6
80520.9
80527.1
80531.7
80535.2
80538.3
80541
80543.3
80545.2
80546.9
80548.4
80549.7
80550.9
80552.1
80553.1
80554.1
80555
80555.6
80555.7
80527.2
80527.9
80507
80527.7
80507.7
80515.9
80527.9
80507.5
80516.5
80524.5
80527.6
80508.3
80515.7
80524.9
80540.3
80527.2
80509.1
80516.4
80523.9
80540.1
80569.2
80526
80509.7
80516.7
80524.8
80538.9
80567.5
80624.4
80524.4
80510.3
80516.9
80524.7
80539.5
80566.6
80619
80722.9
80522.1
80510.9
80517.1
80524.6
80538.8
80566
80616.5
80707.6
80864.3
80519.7
80511.5
80517.3
80524.7
80538.4
80564.3
80612.2
80697
80823
80995.3
80517.2
80512
80517.7
80524.9
80538.5
80562.9
80606.8
80680
80782.9
80909.6
81026.5
80515
80512.7
80518.4
80525.5
80538.9
80561.7
80600.6
80660.8
80734.8
80825.7
80895
80915.4
80513.3
80513.8
80519.4
80526.7
80539.6
80560.4
80593
80637.8
80690.3
80743.2
80784.4
80793.2
80774
80512.6
80515.4
80520.9
80528.6
80540.5
80558.5
80583.8
80614.1
80647.7
80675.9
80698.4
80703.2
80701.1
80692.6
80512.9
80517.2
80523.1
80530.5
80541.1
80555.2
80573
80592
80611.5
80626.2
80637.7
80644.6
80647.5
80649.3
80648.9
80514.1
80519.5
80525.7
80532.5
80541.3
80551.7
80563.2
80574.9
80585.2
80593.6
80600.5
80606
80610.5
80614.3
80617.1
80619
80515.5
80521.5
80527.4
80533.3
80540.2
80547.3
80554.2
80560.7
80566.4
80571.5
80575.9
80579.9
80583.4
80586.6
80589.4
80591.5
80593.2
80519.1
80525
80530.9
80536.4
80541.5
80546.4
80551.1
80555.2
80559
80562.3
80565.3
80568
80570.5
80572.7
80574.6
80576.4
80577.8
80579
80520.2
80526.1
80530.7
80534.1
80537.1
80539.8
80542.1
80544
80545.6
80547
80548.4
80549.6
80550.9
80552
80553.1
80554.1
80554.9
80555.5
80555.9
80526
80526.8
80505.8
80526.5
80506.3
80514.7
80526.9
80505.9
80515.3
80523.4
80526.7
80506.6
80514.2
80523.8
80539.1
80526.5
80507.2
80514.9
80522.5
80539.1
80567.9
80525.8
80507.9
80515.2
80523.2
80537.6
80566.8
80623.5
80524.7
80508.5
80515.3
80523.2
80538.1
80565.4
80619.1
80725.1
80523.1
80509.3
80515.6
80523.1
80537.4
80565
80616.4
80712.4
80884.3
80521
80510.1
80516
80523.1
80537
80563.3
80613
80703.8
80848.9
81057.8
80518.7
80510.7
80516.4
80523.5
80536.9
80562
80608.4
80690.3
80818.4
80977.5
81159.3
80516.2
80511.3
80516.9
80523.9
80537.2
80561
80603.6
80674.6
80774.6
80903.4
81019.5
81086
80514.2
80512.1
80517.7
80524.7
80537.8
80560
80597.8
80656.2
80728.8
80817.9
80890.2
80925.1
80892.7
80512.6
80513.3
80518.7
80526
80538.6
80559
80590.7
80633.9
80685.4
80737.5
80778.8
80792.5
80782.1
80756.1
80512.1
80514.9
80520.4
80527.9
80539.6
80557.2
80581.6
80611.1
80643.4
80671.1
80693.6
80699.6
80699.5
80695.7
80686.9
80512.5
80516.7
80522.5
80529.8
80540.2
80554
80571.1
80589.3
80608.2
80622.3
80633.8
80640.6
80644.5
80647.1
80648.9
80648.7
80513.9
80519
80525
80531.8
80540.3
80550.2
80561.5
80572.7
80582.5
80590.6
80597.3
80602.8
80607.6
80611.7
80615.3
80618
80619.8
80515
80520.4
80526.5
80532.4
80539.1
80545.9
80552.6
80558.8
80564.3
80569.2
80573.5
80577.5
80581.2
80584.5
80587.5
80590.1
80592.1
80593.7
80518.7
80524.4
80529.7
80535.1
80540.2
80545
80549.5
80553.5
80557.1
80560.5
80563.5
80566.2
80568.7
80571
80573.2
80575.1
80576.8
80578.1
80579.4
80519.4
80525.1
80529.5
80533
80535.9
80538.5
80540.7
80542.6
80544.3
80545.7
80547.1
80548.3
80549.6
80550.8
80552
80553.1
80554
80554.8
80555.6
80555.6
80524.8
80525.6
80504.6
80525.2
80505
80513.7
80525.6
80504.3
80514.2
80522.2
80525.4
80504.8
80512.8
80522.6
80537.9
80525.4
80505.2
80513.2
80520.9
80538.1
80566.6
80525
80505.8
80513.4
80521.6
80536.1
80565.8
80622.1
80524.4
80506.4
80513.5
80521.3
80536.8
80563.8
80618.6
80725.4
80523.2
80507.3
80513.8
80521.3
80535.8
80563.9
80615.7
80714.5
80896.9
80521.9
80508.3
80514.3
80521.3
80535.3
80561.9
80613.1
80707.9
80866
81105.4
80519.7
80509.2
80514.9
80521.7
80535.1
80560.6
80608.6
80696.9
80842.7
81034.2
81284.4
80517.6
80509.9
80515.5
80522.2
80535.3
80559.7
80604.6
80683.7
80808.3
80969.4
81145.3
81277.4
80515.3
80510.6
80516.1
80522.9
80535.8
80558.9
80600.3
80669
80766.8
80891.8
81013.1
81095.8
81066.4
80513.3
80511.5
80516.9
80523.8
80536.6
80558.3
80595
80651.5
80722.3
80809.9
80882.6
80924.9
80907.8
80857.8
80512
80512.8
80518.1
80525.3
80537.7
80557.5
80588.2
80629.9
80680.2
80731.2
80772.2
80788.4
80781.9
80765.8
80736.6
80511.6
80514.4
80519.8
80527.2
80538.8
80555.8
80579.4
80608.1
80639
80666
80688.1
80694.8
80696
80694.2
80689.9
80682.1
80512
80516.3
80522
80529.2
80539.3
80552.8
80569.1
80586.7
80604.6
80618.1
80629.4
80636.1
80640.4
80644.1
80646.8
80648.5
80648.7
80513
80518.3
80524.5
80531
80539.2
80548.9
80559.8
80570.4
80579.7
80587.4
80593.9
80599.4
80604.3
80608.7
80612.6
80616.1
80618.7
80620.5
80514.6
80519.9
80525.4
80531.1
80537.9
80544.5
80550.8
80556.9
80562.1
80566.8
80571
80575
80578.7
80582.2
80585.3
80588.2
80590.7
80592.7
80594.3
80518.1
80523.6
80528.9
80533.8
80538.6
80543.4
80547.9
80551.7
80555.3
80558.5
80561.6
80564.4
80566.9
80569.3
80571.5
80573.5
80575.4
80577.2
80578.6
80579.9
80518.7
80524.1
80528.3
80531.7
80534.6
80537.2
80539.4
80541.2
80542.9
80544.4
80545.8
80547
80548.2
80549.5
80550.8
80551.9
80553
80554.1
80554.8
80555.3
80555.4
80523.7
80524.4
80503.6
80523.9
80503.9
80512.7
80524.3
80502.9
80513.1
80521.2
80524
80503.1
80511.4
80521.5
80536.9
80524.1
80503.3
80511.6
80519.5
80537.1
80565.3
80523.8
80503.7
80511.5
80520
80534.6
80564.8
80620.4
80523.4
80504.1
80511.5
80519.6
80535.2
80562.1
80617.7
80724.6
80522.7
80505
80511.7
80519.1
80534.3
80562.4
80614.3
80715.1
80903.8
80521.7
80506
80512.1
80519.1
80533.3
80560.5
80612.7
80708.8
80877.3
81139.3
80520.5
80507.2
80513
80519.4
80532.9
80558.8
80608.1
80701.1
80858.2
81077.2
81387.8
80518.5
80508.2
80513.8
80520.1
80533.1
80557.7
80604.2
80689.2
80831.4
81023.5
81259.9
81473.4
80516.4
80509.1
80514.5
80520.9
80533.6
80557.2
80600.6
80676.9
80798.6
80954.1
81137.4
81277.9
81303.1
80514.3
80509.9
80515.2
80521.8
80534.4
80556.8
80596.8
80663.2
80758.2
80880.7
81001.6
81094.3
81090.3
81021.7
80512.5
80511
80516.2
80522.9
80535.5
80556.5
80592.1
80646.6
80715.5
80801
80874.1
80919.8
80909.9
80878.5
80814.9
80511.3
80512.3
80517.5
80524.6
80536.7
80556
80585.8
80626.1
80674.6
80724.3
80764.8
80782.9
80778.4
80766.4
80747.1
80719.5
80511.1
80514
80519.3
80526.6
80537.9
80554.5
80577.4
80604.9
80634.5
80660.6
80682.1
80688.9
80691.1
80690.8
80688.5
80684.8
80678.4
80511.9
80516.1
80521.5
80528.5
80538.4
80551.6
80566.9
80584
80601
80613.9
80624.8
80631.1
80635.7
80640
80643.6
80646.4
80648.3
80648.7
80512.7
80517.6
80523.3
80529.9
80538.4
80547.5
80558.1
80568.1
80576.8
80584.1
80590.3
80595.7
80600.6
80605.3
80609.6
80613.4
80616.8
80619.3
80621.2
80514.3
80519.4
80524.6
80530
80536.4
80542.9
80549.3
80554.7
80559.8
80564.3
80568.4
80572.3
80576.1
80579.6
80582.9
80586
80588.8
80591.3
80593.3
80594.9
80517.6
80522.8
80527.8
80532.7
80537.3
80541.6
80546
80549.9
80553.3
80556.5
80559.5
80562.4
80565
80567.4
80569.7
80571.9
80573.9
80575.8
80577.6
80579
80580.4
80518
80523.1
80527.1
80530.4
80533.2
80535.9
80538
80539.8
80541.5
80543
80544.4
80545.7
80546.9
80548.2
80549.4
80550.7
80551.9
80553.1
80553.9
80554.7
80555.1
80555.1
80522.7
80523.3
80502.7
80522.6
80502.8
80511.9
80522.9
80501.6
80512.2
80520.3
80522.5
80501.6
80510.1
80520.6
80535.8
80522.6
80501.4
80510.1
80518.2
80536.1
80564.2
80522.4
80501.5
80509.7
80518.3
80533.2
80563.6
80619.3
80522.2
80501.7
80509.4
80517.7
80533.6
80560.5
80616.6
80723.7
80521.6
80502.4
80509.4
80517.1
80532.5
80560.7
80612.4
80715
80906.8
80521.1
80503.5
80509.7
80516.6
80531.5
80558.8
80611.5
80708.1
80884
81162.6
80520.1
80504.7
80510.5
80516.9
80530.5
80557
80607.4
80702.7
80867.4
81108
81466.8
80519.1
80506.1
80511.5
80517.5
80530.5
80555.4
80603.2
80692.5
80846.2
81064.4
81352.9
81652
80517.2
80507.3
80512.5
80518.5
80531
80554.8
80599.5
80681.3
80819.8
81005.5
81248.9
81458.4
81570.9
80515.3
80508.3
80513.5
80519.6
80531.9
80554.6
80596.6
80669.9
80788
80939.8
81122.2
81271.4
81330.4
81247.4
80513.3
80509.2
80514.4
80520.7
80533
80554.7
80593.3
80657.3
80749.1
80868.5
80990.5
81085.7
81096.4
81054.8
80950.7
80511.7
80510.4
80515.5
80522.1
80534.4
80554.8
80589.3
80641.5
80708.5
80791.4
80864.4
80912.9
80907.3
80883.1
80839.6
80774.7
80510.7
80511.9
80516.9
80523.9
80535.8
80554.6
80583.3
80622.3
80668.5
80717.1
80756.8
80775.7
80773.2
80763.6
80748.2
80730.1
80705.6
80510.7
80513.6
80518.8
80526
80537.1
80553.3
80575.3
80601.5
80629.9
80655.1
80675.6
80682.1
80685.2
80685.9
80685
80683.4
80680.7
80675.7
80510.8
80514.9
80520.8
80528.1
80537.8
80550.2
80564.8
80581.5
80597.2
80609.6
80619.8
80625.6
80630.5
80635.2
80639.4
80643.2
80646.1
80648.1
80648.9
80512.3
80517
80522.6
80528.8
80536.7
80546.2
80556.2
80565.5
80574
80580.8
80586.6
80591.8
80596.7
80601.5
80606
80610.3
80614.1
80617.4
80620
80622
80513.8
80518.7
80523.9
80529.1
80535.1
80541.2
80547
80552.8
80557.4
80561.8
80565.7
80569.6
80573.3
80576.9
80580.4
80583.6
80586.6
80589.3
80591.8
80593.9
80595.5
80517
80521.9
80526.8
80531.5
80535.9
80540.2
80544
80547.8
80551.3
80554.4
80557.5
80560.3
80563
80565.5
80567.9
80570.1
80572.2
80574.3
80576.2
80578.1
80579.5
80580.9
80517.3
80522.1
80526
80529.2
80531.9
80534.3
80536.6
80538.3
80540
80541.5
80543
80544.4
80545.6
80546.9
80548.1
80549.4
80550.6
80552
80552.9
80553.8
80554.5
80554.9
80554.8
80521.8
80522.2
80502
80521.4
80501.9
80511.2
80521.6
80500.5
80511.3
80519.5
80520.9
80500.1
80509.1
80519.7
80535
80520.9
80499.6
80508.7
80517
80535.2
80563.2
80520.7
80499.5
80508
80516.9
80531.9
80562.7
80618.1
80520.6
80499.3
80507.4
80515.9
80532
80558.8
80615.9
80722.4
80520.2
80499.7
80507.1
80515.1
80530.7
80558.9
80610.3
80714.8
80907.7
80519.9
80500.6
80507
80514.3
80529.5
80557
80609.8
80706.6
80887.3
81178.5
80519.3
80501.9
80507.7
80514
80528.3
80555.1
80606.1
80702.2
80872
81129.6
81523.4
80518.5
80503.4
80508.7
80514.5
80527.6
80553
80602
80693.9
80855.1
81092.7
81422.4
81804.8
80517.6
80505.1
80510
80515.5
80527.8
80551.9
80597.9
80683.7
80832.8
81045.2
81338.3
81623.9
81836.6
80515.9
80506.4
80511.3
80516.8
80528.8
80551.7
80594.9
80673
80807.5
80987.7
81228.9
81448.6
81592
81534.5
80514.2
80507.6
80512.4
80518.3
80530.1
80552
80592.4
80662.8
80776.8
80924.3
81107.2
81259.8
81335.4
81293
81159.2
80512.4
80508.6
80513.5
80519.7
80531.6
80552.6
80589.9
80651.3
80739.6
80855.8
80977.6
81075.1
81097.4
81061.7
80995.4
80878.3
80511
80509.9
80514.8
80521.3
80533.3
80553.1
80586.5
80636.4
80701.5
80781.3
80853.8
80903.9
80901.6
80883.2
80845.8
80801.5
80740.7
80510.1
80511.3
80516.4
80523.3
80534.9
80553.2
80580.9
80618.4
80662.5
80709.7
80748.2
80767.1
80766.1
80758.6
80745.9
80731.5
80715.9
80694.7
80510.1
80513.1
80518.7
80525.6
80536.2
80552.1
80573.3
80598
80625.4
80649.4
80668.6
80674.6
80678.3
80679.7
80680.1
80680
80679.2
80677.5
80673.5
80510.4
80514.4
80519.7
80526.7
80536.4
80549
80562.6
80578.8
80593.6
80605.2
80614.5
80619.8
80624.9
80629.8
80634.6
80639
80642.8
80646
80648.1
80649.2
80512.1
80516.7
80522.2
80527.9
80535.3
80544.3
80553.9
80563.5
80570.9
80577.4
80582.8
80587.7
80592.6
80597.4
80602.2
80606.7
80610.9
80614.7
80618
80620.7
80622.9
80513.4
80518
80523
80528.2
80533.9
80539.6
80545.3
80550.2
80555
80559.1
80563
80566.8
80570.5
80574.1
80577.6
80581
80584.2
80587.1
80589.9
80592.4
80594.5
80596.2
80516.4
80521.1
80525.7
80530.2
80534.5
80538.5
80542.3
80545.7
80549.1
80552.3
80555.3
80558.1
80560.8
80563.4
80565.9
80568.2
80570.4
80572.6
80574.7
80576.7
80578.6
80580.1
80581.5
80516.6
80521
80524.7
80527.9
80530.5
80532.9
80535
80537
80538.5
80540.1
80541.6
80543
80544.3
80545.6
80546.8
80548.1
80549.3
80550.8
80551.8
80552.9
80553.6
80554.2
80554.7
80554.5
80521
80521.3
80501.3
80520.4
80501.1
80510.5
80520.4
80499.5
80510.6
80518.9
80519.5
80498.9
80508.1
80518.9
80534.4
80519.3
80498
80507.4
80516
80534.6
80562.3
80519
80497.5
80506.4
80515.5
80530.7
80562
80616.9
80518.9
80496.9
80505.5
80514.2
80530.6
80557.5
80615
80721.1
80518.4
80497.1
80504.9
80513.1
80529
80557.1
80608.9
80714.2
80907.2
80518.3
80497.6
80504.3
80511.9
80527.6
80555.2
80607.6
80705.2
80888.9
81189.2
80517.9
80498.7
80504.7
80511.2
80525.9
80553.1
80604.5
80700.7
80873.2
81144.6
81562.2
80517.6
80500.3
80505.5
80511.1
80524.8
80550.7
80600.5
80693.3
80859.4
81112.2
81472.8
81924.5
80516.8
80502.1
80507
80512
80524.4
80549
80596.1
80685.1
80840.1
81073.5
81403.2
81760.5
82077
80516.3
80504
80508.6
80513.4
80525.1
80548.1
80592.5
80674.4
80819
81025.2
81314.9
81610.1
81835.6
81880.1
80514.6
80505.5
80510.1
80515.2
80526.6
80548.4
80590
80664.9
80794.5
80969
81209.2
81432.1
81591
81591.7
81451
80513.1
80506.8
80511.5
80517
80528.4
80549.4
80588.2
80655.7
80765.2
80908.4
81090.1
81245.9
81334.4
81303.7
81225
81052.2
80511.5
80508
80512.7
80518.8
80530.3
80550.6
80586.5
80645.3
80730.1
80842.5
80963.5
81062
81092.9
81065
81007.6
80930.1
80813.8
80510
80509.2
80514.3
80520.7
80532.2
80551.6
80583.7
80631.5
80694.4
80770.9
80842.3
80893.1
80893.6
80879
80847.4
80808.9
80768.2
80713.5
80509.8
80511.5
80516.1
80522.6
80534
80552
80578.8
80614.6
80656.7
80702.1
80739.3
80757.5
80757.4
80751.5
80741.1
80729.5
80717.3
80704.3
80686
80509.1
80512.1
80517.3
80524.4
80535.6
80551
80570.9
80594.7
80621.1
80643.6
80661.4
80666.8
80670.9
80672.6
80673.8
80675
80675.8
80675.9
80674.8
80671.9
80510
80514.1
80519.1
80525.7
80534.9
80546.7
80560.7
80576.4
80589.8
80600.9
80609.1
80613.9
80619
80624
80629
80634
80638.6
80642.7
80645.9
80648.2
80649.7
80511.6
80516.1
80521.4
80527.2
80534.4
80542.7
80551.9
80560.2
80568
80573.9
80578.9
80583.6
80588.3
80593.2
80598
80602.8
80607.3
80611.5
80615.3
80618.7
80621.5
80624
80513
80517.4
80522.2
80527.1
80532.7
80538.2
80543.4
80548.2
80552.2
80556.4
80560.2
80563.9
80567.5
80571.1
80574.7
80578.2
80581.5
80584.7
80587.7
80590.4
80593
80595.2
80597
80515.8
80520.2
80524.6
80528.9
80532.9
80536.8
80540.4
80543.7
80546.8
80549.9
80553
80555.9
80558.7
80561.3
80563.8
80566.2
80568.6
80570.8
80573
80575.1
80577.1
80579.1
80580.7
80582
80515.8
80520
80523.4
80526.5
80529.1
80531.4
80533.5
80535.3
80537.1
80538.6
80540.1
80541.5
80542.9
80544.3
80545.5
80546.8
80548
80549.4
80550.5
80551.7
80552.6
80553.4
80554
80554.4
80554.1
80520.3
80520.5
80500.8
80519.4
80500.4
80510
80519.3
80498.6
80510
80518.4
80518.1
80497.8
80507.3
80518.2
80533.7
80517.8
80496.6
80506.3
80515.1
80533.9
80561.6
80517.4
80495.8
80505
80514.3
80529.8
80561.2
80616
80517.1
80494.7
80503.7
80512.7
80529.2
80556.4
80614.2
80719.9
80516.6
80494.6
80502.8
80511.2
80527.4
80555.6
80607.5
80713.4
80906.3
80516.4
80494.6
80501.6
80509.7
80525.7
80553.4
80606.1
80703.5
80889.1
81196.5
80516.2
80495.5
80501.7
80508.5
80523.7
80551.2
80602.3
80699.4
80872.8
81155
81587.9
80516.1
80496.8
80502
80507.8
80522.1
80548.5
80599
80691.7
80860.2
81125.2
81507.9
82013.3
80515.9
80498.9
80503.4
80508.1
80521
80546.1
80594.2
80684.4
80843.5
81092.4
81448.1
81866.7
82285.1
80515.2
80500.8
80505.2
80509.5
80521.1
80544.6
80590.1
80675.4
80824.6
81052
81377.1
81741
82052.6
82224.9
80514.9
80503
80507.2
80511.4
80522.3
80544.2
80586.8
80665.1
80804.4
81004.5
81290.3
81588.8
81828.3
81928.5
81796.6
80513.5
80504.6
80509
80513.6
80524.4
80545.2
80585.1
80656.5
80780.6
80950
81187.6
81414.8
81583
81608.5
81527.8
81315.9
80512
80506.1
80510.6
80515.8
80526.8
80546.9
80584.1
80648.7
80753.1
80892.1
81071.3
81229.7
81328.2
81309.5
81243.5
81134.6
80948.7
80510.3
80507.3
80512.1
80517.8
80529
80548.6
80583.2
80639.4
80720.7
80828.9
80948
81047
81085.5
81062.5
81014.8
80944.9
80869.7
80758.6
80509.9
80509.5
80513.5
80519.9
80531.3
80550.1
80581
80626.9
80687.5
80760.3
80830.1
80880.9
80883.3
80872.3
80844.2
80811.7
80776.2
80740.7
80692.2
80508.4
80509.9
80515.1
80522.2
80533.7
80550.5
80576.5
80611
80650.9
80694.3
80730.1
80747
80747.6
80742.8
80734.1
80724.8
80715.5
80705.8
80694.9
80678.5
80508.5
80511.4
80516.3
80523.2
80533.9
80548.8
80569.1
80591.4
80616.7
80637.9
80654
80659
80662.9
80664.6
80666.5
80668.7
80670.8
80672.5
80673.2
80672.6
80670.5
80510
80513.8
80518.9
80525.3
80533.9
80544.8
80558.2
80572.7
80586.5
80596.5
80603.4
80608.1
80612.9
80617.8
80623
80628.4
80633.6
80638.4
80642.5
80645.9
80648.4
80650.4
80511.3
80515.6
80520.7
80526.2
80533.2
80541.5
80549.8
80557.9
80564.3
80570.4
80575
80579.4
80584
80588.8
80593.6
80598.5
80603.3
80607.8
80612.1
80616
80619.5
80622.5
80625.1
80512.6
80516.8
80521.3
80526.1
80531.4
80536.6
80541.6
80545.9
80550
80553.5
80557.3
80560.9
80564.6
80568.1
80571.7
80575.2
80578.7
80582
80585.2
80588.2
80591
80593.7
80595.9
80597.8
80515.2
80519.3
80523.5
80527.5
80531.4
80535.1
80538.5
80541.6
80544.6
80547.6
80550.5
80553.5
80556.3
80559.1
80561.6
80564.1
80566.5
80568.9
80571.2
80573.4
80575.6
80577.7
80579.7
80581.2
80582.6
80515.1
80518.8
80522.1
80525
80527.6
80529.9
80532
80533.8
80535.4
80537.1
80538.6
80540
80541.5
80542.8
80544.2
80545.5
80546.7
80548.1
80549.2
80550.5
80551.4
80552.4
80553.1
80553.7
80554.1
80553.7
80519.7
80519.8
80500.3
80518.6
80499.8
80509.5
80518.3
80497.9
80509.4
80517.9
80516.8
80496.9
80506.6
80517.7
80533.2
80516.3
80495.4
80505.4
80514.4
80533.4
80561
80515.8
80494.2
80503.8
80513.3
80529
80560.6
80615.2
80515.4
80492.7
80502.1
80511.4
80528.2
80555.4
80613.5
80718.9
80514.6
80492.2
80500.8
80509.5
80526
80554.4
80606.3
80712.7
80905.4
80514.4
80491.8
80499.1
80507.6
80524.1
80551.7
80604.6
80702.1
80888.7
81200.9
80514.2
80492.2
80498.7
80505.9
80521.6
80549.3
80600.7
80697.7
80871.8
81162.1
81604.5
80514.2
80493.2
80498.5
80504.6
80519.5
80546.3
80596.8
80690.4
80859.9
81134.1
81531.7
82076.6
80514.2
80495.1
80499.5
80504.2
80517.7
80543.5
80592.5
80682.5
80844.2
81105.3
81477.6
81945.3
82452.6
80514.2
80497.4
80501.3
80505
80517
80541
80587.7
80674.8
80827.4
81070.4
81419.3
81840.1
82238.5
82535.6
80513.5
80499.7
80503.5
80507
80517.6
80539.8
80583.6
80665.3
80808.6
81030.6
81348.7
81713.3
82040.4
82249.8
82190
80513.7
80502.1
80505.9
80509.4
80519.6
80540.2
80581
80655.5
80789.3
80983.8
81264
81565.8
81813.7
81939.7
81886.4
81663.2
80512
80503.9
80508
80512.1
80522.3
80542
80580.1
80648.3
80765.8
80931.3
81163.8
81395.2
81571.1
81619.3
81550.8
81430.6
81179.9
80510.9
80505.4
80509.7
80514.6
80525.3
80544.5
80580.2
80641.9
80741
80875.6
81050.7
81211
81319.2
81307.7
81258.3
81158.4
81043.9
80864.2
80510.2
80507.2
80511.1
80517.2
80528
80546.8
80580.2
80633.8
80711.6
80815.1
80931.5
81030.4
81074.8
81056.4
81015.1
80955.1
80886.6
80818
80712.3
80508.2
80507.8
80513.3
80520.1
80530.2
80548.7
80578.6
80622.6
80680.5
80749.7
80817.6
80867.5
80871.4
80862.8
80837.7
80809.4
80779.8
80749.2
80718.3
80674.7
80507.5
80509
80513.8
80520.6
80531.6
80549.4
80574.5
80607.1
80645.5
80686.6
80720.8
80736
80736.9
80732.6
80725.1
80717.8
80710.9
80704
80696.3
80686.8
80671.9
80508.1
80511.3
80516
80522.4
80532.4
80547.1
80565.7
80588.2
80612.8
80632.2
80646.5
80651
80654.2
80656
80658.3
80661.2
80664.4
80667.4
80669.7
80670.9
80670.7
80669.5
80509.5
80513.3
80518.3
80524.6
80533.2
80543.5
80556.1
80569.8
80581.8
80592.1
80597.9
80602.1
80606.6
80611.3
80616.7
80622.3
80628
80633.3
80638.2
80642.5
80646.2
80648.8
80651.4
80510.9
80515.1
80520
80525.4
80532.1
80540
80548
80555.3
80561.5
80566.3
80570.8
80575.1
80579.5
80584.2
80589.1
80594.1
80599
80603.8
80608.4
80612.7
80616.7
80620.5
80623.6
80626.4
80512.3
80516.1
80520.4
80525
80530.1
80535
80539.7
80543.8
80547.4
80551
80554.2
80557.9
80561.5
80565.1
80568.6
80572.2
80575.7
80579.2
80582.5
80585.7
80588.8
80591.7
80594.4
80596.7
80598.6
80514.6
80518.3
80522.3
80526.1
80529.8
80533.3
80536.5
80539.5
80542.4
80545.3
80548.1
80551
80554
80556.7
80559.4
80561.9
80564.4
80566.8
80569.2
80571.6
80573.9
80576.1
80578.2
80580.2
80581.8
80583.1
80514.3
80517.7
80520.8
80523.5
80526
80528.3
80530.4
80532.2
80533.9
80535.5
80537.1
80538.6
80540
80541.4
80542.8
80544.2
80545.4
80546.7
80547.9
80549.2
80550.2
80551.2
80552.2
80552.8
80553.4
80553.7
80553.3
80519.2
80519.2
80499.9
80517.9
80499.3
80509.2
80517.5
80497.3
80509
80517.5
80515.7
80496.1
80506
80517.2
80532.8
80515
80494.4
80504.6
80513.8
80532.9
80560.5
80514.4
80492.8
80502.8
80512.5
80528.4
80560.1
80614.5
80513.7
80490.9
80500.7
80510.3
80527.3
80554.7
80612.9
80718
80512.8
80490.1
80499
80508.1
80524.8
80553.3
80605.2
80712
80904.5
80512.4
80489.2
80496.8
80505.7
80522.5
80550.4
80603.2
80700.8
80888.2
81202.8
80512
80489.2
80496
80503.5
80519.8
80547.4
80599.2
80696.1
80870.7
81166.7
81615.1
80512
80489.6
80495.1
80501.6
80517
80544.4
80594.9
80688.9
80859
81139.1
81547.4
82120.4
80512.1
80491.2
80495.6
80500.4
80514.5
80540.9
80590.3
80681.2
80844
81113.7
81496.3
82001.5
82580.5
80512.3
80493.4
80497.1
80500.6
80513.1
80537.8
80585.6
80672.7
80828
81082.4
81446.5
81911.5
82385.9
82802.3
80512.6
80496.2
80499.3
80502